 -8.5659444e-01   2.8635547e-03
 -5.8781486e+00   3.4621175e-02
 -4.8095160e+00   2.2198990e-04
  5.9350717e-01   1.4558759e-03
  8.5931391e-01   8.3170291e-03
  5.2575836e+00   2.2536255e-03
 -2.7196090e+00   2.9999401e-02
 -3.1168184e+00   6.5354821e-03
  2.4168890e+00   2.8595068e-03
  6.6325742e-01   2.8284263e-05
  1.9769357e-01   5.4790679e-02
 -1.7367942e+00   3.3960585e-02
  1.8196076e+00   5.3366426e-02
  3.0586511e-02   2.7218994e-02
 -9.8415285e-01   4.8056738e-03
  9.4113481e-01   4.2812293e-03
  2.6362751e+00   2.6847987e-04
  3.9517026e+00   8.2542398e-04
  9.2478251e-01   2.0694843e-02
  5.6754410e-01   1.4160539e-02
 -1.1249762e+00   8.3189262e-03
 -3.1061773e+00   5.5794516e-03
 -3.0451329e+00   2.2688180e-02
  8.5004526e-01   4.4038855e-03
  1.3073832e+00   6.6684093e-04
  1.5047756e+00   1.3822409e-02
 -2.8843331e+00   1.0872710e-02
 -1.1604495e+00   1.8034013e-02
 -5.1465726e+00   2.3312599e-03
  2.7986199e-01   1.6086880e-03
  1.0944498e+00   1.0161109e-03
 -3.7501462e+00   1.4068607e-04
 -1.2824397e+00   4.9163554e-02
 -1.0871897e+00   1.4254693e-03
  1.1903403e+00   2.2355100e-02
 -2.8864291e+00   2.5930736e-02
  8.3040220e-01   5.3606406e-03
 -3.3774123e+00   1.9057021e-02
 -2.4894791e+00   2.7205490e-03
  3.0966291e-01   1.5639067e-02
 -4.2129228e-01   2.2725419e-03
  4.3590684e+00   8.3522601e-03
  9.8594809e-01   1.3386255e-02
 -2.7749066e+00   6.1858445e-02
  2.3964188e+00   2.6003501e-04
  3.8897514e-01   4.4750073e-03
  1.0903237e+00   2.2509854e-02
 -4.3247557e+00   1.7076069e-02
 -2.2943685e+00   8.6795226e-02
  1.1150150e+00   2.5609482e-02
 -1.1763915e+00   6.0881101e-02
  3.9287198e-01   4.9099666e-03
  1.4949692e+00   8.9753442e-02
  5.8294064e-01   7.3337019e-03
  4.3455844e+00   1.7171133e-02
 -7.8159398e-01   2.4641529e-03
 -3.0915323e-01   2.7057122e-02
  2.8617632e-01   1.8416828e-02
  2.0521138e+00   2.4288684e-02
 -1.1055420e-01   8.6995093e-03
  5.4302754e+00   2.0641116e-02
 -2.0758982e+00   3.6831512e-03
 -6.6840076e+00   1.5987691e-02
  3.6360624e+00   8.3069270e-03
  4.8454242e+00   1.7306801e-03
 -1.5056498e+00   5.1549949e-02
  3.9264297e-01   2.1689730e-02
  2.1665642e-01   2.8676994e-04
  1.7909335e+00   9.4873589e-03
 -2.3854256e+00   3.4611840e-03
 -2.9208815e+00   2.7258059e-03
 -2.2973171e-01   1.2448362e-02
  3.2322536e+00   3.8177818e-02
  4.4554963e+00   7.1405359e-02
 -7.0203896e+00   5.4111311e-05
 -4.9600992e+00   3.2383166e-03
  7.2434664e-01   5.2603148e-03
 -2.4579222e+00   3.2894161e-02
 -2.5034001e+00   7.0633763e-03
 -1.6911976e+00   1.0376067e-03
  1.8812674e+00   1.7623141e-02
 -5.0269872e-01   8.7932311e-03
  4.0851130e+00   2.2752583e-03
 -1.2086281e+00   2.0217298e-02
 -1.6482813e+00   5.4988177e-03
  2.0341902e+00   6.6119176e-03
 -2.3406780e+00   1.6918542e-02
  6.8131864e-01   6.0754277e-02
 -1.5344263e+00   4.4267401e-02
 -1.3484828e-01   6.5113597e-02
  3.1896980e+00   5.9227035e-03
 -1.8530067e+00   6.3850884e-03
  1.5742687e+00   2.9445246e-02
 -4.5954096e-01   6.4390799e-04
  9.1954494e-01   6.3434993e-05
 -9.7517586e-01   5.5006221e-02
 -4.6396098e+00   8.1082080e-03
 -3.2212591e-01   9.3827797e-03
 -1.2721336e+00   3.1026395e-02
  2.5878880e+00   2.0650043e-03
 -3.8619502e+00   3.7329171e-03
  1.4869536e+00   2.8407141e-05
  2.9821270e+00   2.2944459e-03
 -1.9412750e-01   4.8549183e-02
  5.4450827e+00   1.8656161e-02
 -2.7234066e+00   4.0129770e-02
  1.3142911e+01   1.3761093e-03
 -1.2295284e+00   3.5797805e-02
 -4.5341797e+00   2.8885265e-03
 -3.1653218e+00   7.6341379e-04
  4.3098712e+00   2.0997107e-03
  4.6419957e-01   4.7806459e-03
 -7.9719502e-01   2.7565716e-03
  2.4761677e+00   3.9582355e-03
  7.1554890e+00   6.7046206e-03
 -4.5810313e+00   4.4542225e-03
  3.2824059e+00   1.7878352e-03
 -7.2178930e-01   6.4660423e-03
  6.3388807e-01   5.6988015e-03
 -1.2436900e+00   5.2312076e-05
 -4.0519137e+00   3.6478214e-04
 -8.8302479e+00   3.0592747e-03
  1.8019256e-01   3.6457963e-03
 -3.6850104e+00   1.3508913e-02
 -8.2494237e-02   2.7797229e-04
  3.8497396e-02   5.3387750e-03
  2.7844524e+00   5.0381185e-03
 -2.6980343e+00   4.8430517e-02
 -4.6489701e+00   5.0204992e-04
 -9.1251537e-02   1.9401981e-02
 -6.5247601e-01   2.5391872e-03
  4.8681808e+00   1.0745317e-03
 -2.4878323e+00   2.2845214e-02
 -3.2601386e-01   7.8559556e-04
  4.3951651e-01   1.3310333e-02
 -6.9687349e-01   3.7365886e-03
  1.3301816e+00   7.2858972e-03
 -4.4338393e-01   3.8823567e-03
  2.9670954e+00   9.1357306e-03
  6.0762799e-01   9.6956175e-04
  2.4907666e-01   2.0877240e-04
 -8.9849925e-01   1.2490778e-02
  1.7183187e+00   1.4112893e-02
 -2.1208818e+00   6.8650618e-02
 -5.9873611e-01   4.7447445e-04
 -3.3430297e-02   1.2733627e-03
 -4.8126298e-01   5.4718833e-04
 -8.7524223e-01   6.3008809e-04
  1.3541006e-01   3.2922567e-04
 -1.0140364e+00   3.2265175e-03
  5.0441337e-01   1.2088368e-03
  1.0425923e+00   1.0433563e-04
  1.9404034e-01   4.3987534e-03
 -1.2110754e+00   7.0382990e-02
  1.8166013e-01   4.5736330e-03
  3.6623895e+00   6.7503206e-05
 -2.3480027e+00   2.7169369e-02
  4.7608164e-01   1.2806642e-03
 -2.0129862e+00   3.9913959e-04
 -2.8735294e+00   8.9232251e-02
 -2.5707042e+00   2.8668134e-02
 -2.1426497e+00   2.4647152e-02
  1.0647447e+00   2.2068197e-02
  1.0539573e+00   1.2571831e-02
 -2.3420658e+00   2.8295401e-02
 -8.2762873e-01   3.5048693e-02
  4.8515797e-01   5.1366977e-02
 -2.1318071e+00   4.6886813e-02
 -2.3809054e+00   4.8102316e-02
  2.8996348e+00   8.8074151e-03
 -2.2878078e-01   4.0356538e-04
 -7.6552168e-03   7.5497720e-03
 -1.2399272e+00   1.5011740e-02
  3.9863241e+00   4.4433199e-02
 -2.4286094e+00   5.8370486e-02
 -4.4057236e+00   3.4268852e-02
 -3.3377917e+00   1.6272388e-03
  3.1316823e-01   2.6616089e-02
  1.4199730e+00   2.5688447e-02
 -1.9349320e+00   4.6380527e-02
  1.8335671e+00   2.0111851e-02
  1.2747186e+00   1.7457511e-04
 -1.3824841e-01   2.5456894e-02
 -1.0732063e+00   8.6575141e-03
  1.8215165e-01   1.7944330e-03
 -1.7072518e+00   2.9709059e-04
  2.9873221e+00   2.4546001e-03
 -3.1516092e+00   5.3907344e-03
 -9.4906144e-02   1.8263882e-02
  1.9917661e+00   4.4402893e-04
 -1.2303833e+00   3.5465960e-03
 -2.9286551e+00   3.0534314e-03
  2.7712959e-01   1.5701485e-03
  1.5969546e+00   4.6867412e-02
 -3.0986434e-01   3.9907233e-03
  2.5412783e-01   1.2665265e-02
  1.7396041e+00   1.7953849e-04
 -1.0724806e+00   1.1306971e-02
  2.1117780e+00   2.3467978e-02
  2.2666787e-01   3.5972342e-02
 -1.8462018e+00   6.0948502e-02
 -5.0461394e-01   1.8653749e-02
  1.0691204e+00   3.8337382e-04
 -1.3187101e+00   5.0892197e-02
  2.3785205e-01   7.1914340e-03
 -5.1807952e+00   5.2960613e-03
 -1.3602085e+00   3.8584378e-02
 -4.4263604e-01   7.5550422e-02
 -1.5427284e+00   1.2063597e-02
  1.0315408e+00   1.6575713e-02
 -1.2664292e+00   1.9887164e-02
  7.3291802e-01   4.1288859e-03
  1.6008039e+00   1.2262798e-02
 -1.2122328e+00   7.2522111e-02
  3.5283418e+00   2.9197171e-02
 -2.8741405e+00   1.0308281e-02
  5.0330672e+00   4.0668964e-02
  4.5457535e+00   2.5695243e-03
  2.7928526e+00   1.3623352e-03
  2.9839146e-01   4.3452964e-03
 -2.8556709e+00   2.3023797e-02
 -2.1420560e+00   9.0811091e-06
 -4.4079394e+00   4.4288351e-03
 -2.9292619e+00   1.4395439e-02
 -6.9569993e-01   8.3182352e-03
  1.0755020e+00   4.7107259e-04
  2.6848741e+00   1.9644096e-02
  1.6518942e+00   1.1065884e-02
  2.7456820e+00   5.1287401e-02
 -4.6746678e+00   1.0496768e-03
 -1.7359681e-01   1.9437395e-02
 -2.2117391e+00   3.7767678e-02
  1.6899288e+00   2.6190502e-04
 -6.5517581e-01   8.2456976e-02
  8.4788424e-01   5.8402039e-02
 -1.3384296e+00   1.4997991e-02
  6.5756458e-01   1.8438211e-03
  3.8913004e-02   1.1019294e-02
 -6.1107936e+00   9.7524337e-03
  3.0372415e+00   2.8686975e-03
  4.2386231e+00   5.9350617e-02
 -2.0819023e+00   1.6551364e-02
 -1.6258855e+00   9.2399667e-04
 -7.2293484e-01   1.3205519e-02
  4.5307899e+00   2.0336531e-02
 -3.2241974e+00   4.8444788e-03
  1.4251738e+00   4.6059061e-02
 -3.4721336e+00   5.7230232e-04
 -1.0145133e+00   7.9195313e-02
 -3.5521276e+00   5.6266610e-02
 -1.1355764e-01   8.0622798e-03
  1.6810872e-01   1.5946139e-03
  3.7815218e+00   6.8658419e-02
 -3.7443647e-01   7.6859472e-03
 -2.6769357e+00   3.4926940e-02
 -9.5520608e-02   7.9797944e-03
  6.1908488e+00   8.2234144e-03
  2.2298877e-01   3.5309155e-02
  1.2855142e+00   8.0049820e-03
  1.1130247e+00   2.2682358e-02
 -3.3956307e-01   8.1221998e-04
  2.9466124e+00   3.0837072e-02
 -2.6196671e+00   2.4771222e-03
 -1.3724700e-01   1.8845111e-02
 -9.4029468e-01   1.4915653e-02
  3.9939633e-01   1.9651765e-02
 -2.1317527e+00   2.1312093e-02
  4.1306770e-01   1.6196793e-02
 -1.0521229e-01   2.5752638e-02
  6.4132047e-01   2.1250497e-03
  3.5391765e+00   1.5609401e-04
 -3.0641243e+00   1.2556742e-03
  3.4461648e+00   6.2544034e-03
  2.5328884e-01   6.7296247e-03
 -3.7366245e+00   9.7750081e-03
  3.6004295e+00   3.9972700e-04
  1.2077438e+00   8.8107334e-03
  9.0870339e-01   3.2729842e-03
  1.3587010e+00   1.0628685e-03
  1.1560682e+00   5.8738579e-04
  5.0264506e+00   7.9374929e-04
  1.9049138e+00   2.8372854e-02
  2.6192400e+00   2.0780336e-02
  1.3251489e+00   2.9347816e-02
 -8.4350920e+00   2.2013234e-04
 -7.1232474e-01   5.9729139e-04
 -2.2317395e+00   1.9926689e-05
  2.5917485e+00   2.1743770e-03
  2.4361215e+00   4.0748920e-02
 -1.3089571e+00   2.8369986e-02
  4.6955900e+00   1.8865039e-03
 -1.4563240e+00   2.8539514e-03
  1.4923279e+00   2.2992518e-02
 -2.4862411e+00   6.0328054e-03
  1.0808673e-01   2.6472766e-02
  1.4252983e+00   3.6506055e-04
  2.9443560e+00   9.7431691e-04
  1.2710104e+00   1.2089099e-03
  3.4127292e-01   7.6321320e-04
  4.4122171e-01   2.0088565e-02
 -5.7472575e-01   7.4508111e-03
  2.2441647e+00   6.0319915e-02
 -6.8717343e-01   4.9574370e-03
 -4.3766317e+00   5.6358818e-05
  7.4075520e-01   1.8940683e-02
 -4.5516930e+00   7.5957268e-03
 -2.6628079e+00   1.0851217e-02
 -2.6738384e+00   3.2510977e-02
  5.2436204e+00   5.8899127e-04
  1.6787972e+00   1.6428394e-03
  2.8726630e+00   5.1934559e-02
  2.6240463e+00   6.6384589e-03
  5.1354504e-01   6.7361824e-02
  7.9969060e-01   4.3099271e-03
 -2.9586701e+00   2.0007917e-03
 -2.1669335e+00   5.8820555e-03
  2.9747908e+00   2.5082887e-03
  1.2993710e+00   5.7681888e-02
 -5.7762051e+00   5.1279604e-02
  1.1623555e+00   7.2576967e-03
 -1.9885434e+00   3.8470741e-02
  2.5740540e-01   5.8712967e-02
 -5.3101665e-01   7.6135069e-02
  3.5421698e+00   4.0778887e-02
  1.2868055e+00   6.9481991e-03
  2.7716801e-01   1.4121817e-04
 -1.2338202e+00   1.2800578e-03
  9.0209752e-01   2.9047932e-02
  1.8257020e+00   1.8233688e-03
 -2.0689343e-01   1.1411512e-02
  3.8369081e+00   1.8255102e-02
 -1.9767880e+00   7.8147714e-04
  4.9872761e+00   3.8478016e-03
 -1.7446599e+00   6.1789971e-02
 -2.4971304e+00   7.2510131e-03
 -2.8106625e+00   1.6796742e-02
 -2.7682967e+00   2.8693676e-03
 -2.0719814e+00   4.1851353e-02
 -1.5135915e+00   6.6745877e-03
  6.4392358e-01   6.8974290e-03
 -1.0621719e+00   3.3014525e-02
  3.2576771e+00   1.0411741e-03
  9.6091367e-03   3.1219549e-03
  1.2119484e+00   1.8824514e-02
  1.6251358e+00   2.9053245e-02
 -9.8047304e-01   5.1655169e-03
  5.0788957e-01   3.6777819e-03
  1.6051677e+00   8.1147188e-03
  4.3447191e-01   1.5415902e-02
  2.5028496e+00   2.0667193e-02
  1.4337629e+00   2.4599502e-02
 -1.7315698e+00   8.9075426e-03
  7.3990166e-01   1.0507368e-02
  4.2452490e-01   4.9000322e-03
  4.0281695e-01   1.5438737e-02
  3.7143021e+00   8.2292352e-03
 -3.2244141e+00   1.0549425e-03
  2.5921574e+00   3.6206018e-02
 -1.7160589e+00   8.9758951e-03
  2.1139557e+00   1.6592622e-03
  1.1269907e+00   4.9971620e-04
  9.2249930e-01   2.6992055e-02
  2.7921100e+00   3.8424314e-03
 -1.9272217e-01   4.0277751e-04
  5.0912005e-01   3.6810033e-02
  7.9945189e-01   2.0510289e-03
  2.4140968e+00   3.7275337e-02
  1.9301970e+00   9.5120282e-05
 -3.6348977e+00   1.4740760e-02
  3.0188942e+00   3.8637228e-03
 -5.3631741e-01   5.6585353e-03
 -7.8241229e-01   7.7641837e-02
  2.6089768e+00   5.3252116e-02
 -1.6181239e+00   2.8150119e-02
 -3.1224877e-01   2.9531486e-02
  1.6910005e+00   1.9969030e-03
  6.2973013e+00   8.3001247e-03
  5.2479711e+00   1.4639528e-02
  2.9630949e+00   8.1133831e-04
  2.5688260e+00   2.3388274e-03
 -2.9074070e+00   7.4359188e-03
  6.6900015e-01   1.9970411e-03
  2.2282155e+00   4.4078645e-03
  3.8582103e+00   1.4968693e-02
 -5.5291367e+00   9.4330747e-04
  3.3982520e+00   1.2656872e-03
  1.3612906e+00   1.5821477e-03
  2.3394759e+00   2.9213656e-02
 -8.1747323e-01   1.5130641e-02
  2.8704133e+00   5.7076607e-02
 -1.1094074e+00   5.1375575e-02
  1.2333659e+00   1.8056725e-04
  3.4674320e-01   3.6780250e-03
  5.7432276e-01   3.2368273e-02
  4.5154536e-01   4.1414291e-02
 -1.5710463e-01   1.0556590e-02
 -2.3497796e+00   1.4263208e-02
 -4.7613997e+00   2.0969752e-03
 -1.5755050e+00   2.7563188e-03
  5.1837287e+00   5.7145711e-03
 -4.8126790e-01   2.3724165e-02
  1.4399475e+00   3.8182207e-03
 -1.0958805e+00   5.0499802e-03
 -3.2431679e+00   4.4044913e-03
  2.6650589e+00   1.6500020e-02
  1.0142822e+00   6.3640006e-02
  2.0828924e+00   7.3782466e-02
 -4.5521468e-01   2.8452020e-02
 -1.5488304e-01   1.0103515e-02
 -5.1380670e-01   1.3993076e-03
 -3.4915428e+00   1.7309154e-03
  5.9413114e+00   6.6431412e-03
  6.0740483e-01   5.0752779e-04
 -2.2922695e+00   2.6123917e-02
 -1.8888718e+00   9.5630782e-03
  1.9177004e+00   4.1653230e-03
 -1.3219030e+00   6.7536179e-03
 -1.7318957e+00   4.1618660e-02
 -6.2351620e-01   1.1017334e-04
 -2.4191883e+00   3.2008337e-03
  1.4396574e+00   6.6276980e-03
  7.6811206e-01   8.9877336e-05
 -3.4440603e+00   1.3355456e-02
 -1.3807105e+00   7.7782817e-02
  2.3211026e+00   5.1035620e-02
 -2.5119801e+00   7.2748703e-03
  1.0986967e+00   7.3414245e-03
  2.2273154e+00   1.9044209e-02
 -1.0246444e+00   1.8325442e-02
 -1.8949188e-01   3.2025056e-03
 -2.6262364e+00   1.8587069e-03
 -2.4282589e+00   9.0133806e-04
  2.2200606e+00   1.6166860e-02
  1.3481033e+00   2.4689546e-02
  1.4539212e+00   7.4576307e-04
 -4.2941933e+00   3.2350075e-04
 -1.4922427e+00   1.5812489e-03
 -1.0032345e+00   2.2263906e-03
 -1.2299232e+00   3.5451952e-02
  4.1695538e+00   4.3693941e-05
 -2.9256861e+00   3.6953384e-04
  3.2120325e-02   3.9427783e-02
 -5.0669342e-01   3.5174958e-02
  5.0405064e+00   1.3231274e-02
 -5.8566725e-01   2.2396415e-02
 -2.8686163e+00   2.2323869e-02
 -1.9011078e+00   5.6144129e-02
  3.2688375e+00   2.8100533e-02
 -3.2462263e-01   5.9243008e-02
 -1.4950165e+00   7.0664339e-02
 -2.3104749e+00   1.0073880e-02
  2.8485749e+00   1.9870376e-02
  1.2653389e+00   1.6579952e-02
 -2.2337604e+00   1.6103737e-02
  6.8256062e-01   2.3021463e-02
  1.5261002e-01   7.2352551e-02
  4.9071426e+00   5.9264963e-03
  9.1827738e-01   6.0184002e-03
  2.0331833e+00   1.5684569e-03
 -2.0410886e+00   2.2581078e-02
 -2.1435773e+00   1.6784051e-02
  1.5069274e+00   2.5442855e-02
  1.4482540e-01   1.1582276e-02
  1.0844347e-01   2.6354908e-03
 -1.0509399e+00   9.9584628e-03
  5.1442475e+00   2.6805748e-03
  4.6056223e+00   5.5448515e-03
  3.1438892e+00   2.8014189e-02
  4.9662879e-01   3.0344395e-02
  2.1110158e+00   5.1271035e-03
  5.1220913e+00   8.7041600e-04
 -1.6655539e+00   1.9198534e-03
 -1.6040739e+00   5.6103303e-04
 -1.7926208e+00   3.5582585e-03
 -6.2039715e-01   1.6880438e-03
  4.0863209e+00   1.4993679e-03
 -8.6997193e-01   8.1860443e-04
 -5.6759129e+00   3.1881274e-05
 -7.6932997e-01   4.0927082e-03
  2.4639852e+00   1.7483737e-02
  3.3025696e+00   3.0978147e-02
  2.6053226e+00   3.1883194e-04
  9.1829747e-01   5.9050798e-02
  1.2084565e+00   1.3208061e-03
  1.8178140e+00   3.2863256e-03
  1.3615378e+00   1.5626082e-02
  9.4515127e-01   3.7033011e-03
 -4.4432676e-01   3.1512402e-02
 -7.8509798e+00   1.0831171e-03
 -1.3198683e+00   4.4596358e-04
  2.0778310e+00   1.7684896e-04
 -2.2322538e+00   1.2869942e-03
  1.4612672e+00   1.8840304e-02
 -2.3919308e+00   1.0650881e-02
  9.6429598e-01   3.3819738e-03
 -2.8188972e+00   4.3257704e-05
 -1.8697243e+00   8.7267943e-02
  1.9793801e+00   2.3628766e-02
 -2.8816917e+00   5.1312647e-03
  1.1159374e+00   7.3788717e-02
  3.2909374e+00   3.7647707e-03
  1.3227857e+00   6.1709531e-02
  2.1775479e+00   2.1100472e-04
  5.5054748e-01   5.0569456e-03
 -1.6639937e+00   1.5809350e-03
 -9.7029471e-01   9.0450831e-02
  6.7178899e-01   3.8836340e-03
  3.6028519e-01   8.2978688e-02
 -9.1604882e-01   5.3972499e-03
  2.1009669e-03   3.9264359e-02
 -2.0126851e+00   4.2144671e-02
 -3.4752592e-02   4.8147794e-04
  1.1165259e+00   1.6928636e-02
  9.0959686e-01   4.1381110e-02
  2.3949697e+00   1.7478758e-02
 -2.4118139e-01   4.6013940e-02
  5.2852166e-01   1.4054892e-03
 -1.5889748e+00   4.1388538e-02
  1.2688113e+00   2.9455263e-02
 -1.6924441e+00   2.6292119e-03
 -1.6133927e+00   8.7584086e-02
  1.2640250e+00   1.6495035e-03
  1.6086235e+00   6.6791364e-04
 -9.4344217e-01   1.0134560e-02
 -2.2201092e+00   1.2591364e-02
  1.4329364e+00   1.9979092e-05
  2.2734430e+00   2.9682233e-03
  2.9249046e+00   1.4637324e-02
 -8.0489308e-01   5.1278725e-02
  2.3355355e+00   4.2565111e-02
 -8.5613698e-01   3.3380243e-04
 -2.5995169e+00   1.5026467e-03
  7.3706806e-01   1.5001930e-03
 -4.3722263e-01   7.6629147e-02
 -4.9187008e-01   1.1094923e-02
  1.8266195e+00   8.6686790e-02
  1.6812947e+00   9.7275183e-02
  2.0885684e+00   5.6878631e-03
 -2.4232895e+00   1.8524218e-02
  2.9337108e+00   1.7192618e-03
  1.1152141e-01   3.8291367e-03
  2.6646943e+00   8.1722029e-03
 -7.8567946e-01   6.2564097e-02
  4.5197287e+00   3.4762716e-03
 -3.3535175e+00   8.8314453e-05
  6.1463094e-01   8.7513905e-03
  1.2066700e+00   2.8334318e-02
 -2.3952878e+00   3.3925939e-02
 -3.5744221e+00   9.1545582e-03
 -1.9821929e+00   6.5006185e-03
  2.7019141e+00   9.7345660e-04
  2.2013016e+00   2.9990952e-02
  8.8657773e-01   3.0027354e-02
  2.7425559e+00   5.7312805e-02
 -1.6096617e+00   8.1829712e-02
 -1.2111489e+00   1.5524068e-03
  3.9382589e-01   3.3234444e-02
 -2.1590619e+00   2.4238194e-04
  3.7903919e+00   1.3267524e-02
 -2.4323118e+00   5.1584542e-02
 -8.5778350e-01   2.3342040e-04
  4.1522095e-01   4.7018067e-03
 -8.5909355e-01   9.7798526e-02
  2.9726322e+00   4.9473601e-03
  1.0655607e+00   9.9999467e-03
 -7.2708434e-01   2.3901636e-02
 -2.5797369e+00   4.7810275e-02
  8.2294452e-01   7.3865056e-02
 -2.1735208e+00   5.5004779e-02
 -3.8344266e+00   4.7868574e-03
  1.3541062e+00   5.2377634e-02
 -1.9839183e+00   1.6868397e-04
  2.9807494e+00   5.1666764e-03
 -2.5830734e+00   1.6042395e-02
 -3.4107134e+00   1.8115234e-02
 -3.1621628e-02   5.0528616e-02
  2.1185175e-01   8.4729291e-02
 -5.4582554e-01   9.5163040e-02
  4.8943915e+00   7.1677207e-03
  1.7461063e+00   4.4235168e-03
 -1.3046731e+00   1.7563819e-03
 -1.3378532e+00   4.9666014e-02
  8.8452113e-01   3.3388689e-02
 -4.0526003e-01   8.2958387e-03
 -2.2745383e+00   2.2573528e-04
 -1.5210373e+00   1.8181367e-03
 -7.2359316e-02   3.5730673e-03
  1.1901382e-01   3.0188855e-02
 -2.7971867e-01   7.4925972e-03
  4.7993448e-01   4.0067803e-02
 -1.4174173e+00   3.1170959e-02
  1.5795915e+00   5.8618193e-03
 -9.1208255e-01   5.9763100e-02
  1.1296666e+00   8.2948647e-02
 -3.9733473e-02   7.5932979e-03
  3.2366750e+00   8.7474762e-03
  4.1586471e+00   1.2106953e-02
 -2.2449742e-01   3.9228373e-03
 -1.2002965e+00   1.4426317e-03
 -6.5437446e+00   1.0836164e-02
 -2.7753823e+00   8.6576864e-03
  9.9139762e-01   1.2679365e-02
 -4.0489020e+00   6.1789663e-03
 -2.0323398e+00   2.9905483e-02
  2.8913503e+00   5.4904120e-03
  2.0195818e-01   2.7085762e-02
  5.7573771e+00   1.1777591e-02
  6.8843355e+00   7.3900148e-05
  3.4877744e+00   7.2009547e-04
 -3.0675001e+00   1.0273629e-02
  9.8308748e-01   1.6674485e-04
 -6.9079316e-01   2.3922194e-02
 -2.4129379e+00   2.3045789e-03
  4.8315916e+00   1.7169034e-02
  6.4206967e+00   1.5712399e-02
  1.3429685e+00   2.4404578e-02
  3.9587209e+00   4.4414796e-02
  3.7398522e+00   3.2422755e-02
 -1.7019549e-01   2.4237728e-02
  2.5876331e+00   3.7181564e-02
  1.9461401e+00   2.6195951e-02
 -6.4045167e-01   5.3554907e-02
 -1.5306052e+00   2.2661656e-02
 -2.7649810e+00   3.3929376e-03
 -6.8648565e-01   2.7985990e-04
 -3.1141665e+00   3.2195955e-04
 -4.0854564e+00   2.7573667e-02
 -6.2080038e-01   1.9626960e-03
 -8.3335567e-01   6.5389134e-02
  1.0569112e-01   1.5039882e-03
 -3.7040484e+00   3.8016282e-03
 -1.6948416e+00   6.4295910e-02
  2.8294673e+00   2.3823994e-04
 -2.0869348e+00   1.3509241e-02
  7.7429384e-01   1.4867685e-03
  7.5126433e-01   2.0231018e-02
 -1.5782675e-01   1.6999671e-02
 -1.2152224e+00   5.5355150e-03
  1.6698278e+00   3.7500982e-03
  1.3113132e+00   2.4924541e-02
  2.6886747e+00   2.2330448e-02
 -2.1651258e+00   3.4227753e-03
  2.0906801e+00   3.2249879e-02
 -1.0670688e+00   7.3677730e-03
 -2.0910199e+00   2.2410350e-03
  2.5702567e+00   2.3430762e-04
  4.9268439e-01   1.5516485e-02
  3.0802422e+00   6.5637315e-03
 -7.8378290e-01   3.2124031e-02
  9.6967846e-01   2.9948121e-02
  1.6526744e+00   1.1912753e-02
 -1.9330285e+00   4.7902996e-03
  2.2296543e+00   5.3349421e-03
 -2.7905474e+00   4.8620659e-03
  3.1388795e+00   1.9943388e-02
  2.7611175e+00   3.0014414e-02
 -1.6825444e-01   7.5348198e-02
 -9.3364286e-01   4.6328433e-02
 -2.4464880e-01   5.8704302e-02
  2.9897747e+00   2.5930128e-03
 -2.5628870e+00   6.0389813e-02
  6.5009540e-01   6.7823231e-03
  4.5094843e+00   3.5647489e-03
  3.0099132e+00   8.9207977e-02
  2.4630716e+00   4.0577758e-02
  2.6003435e+00   4.1008657e-03
  9.1086173e-01   1.4845758e-02
 -2.2258065e+00   1.5296539e-05
 -1.6215524e-01   2.1069567e-05
 -1.7539328e-01   8.3348779e-03
  1.2878245e+00   3.9396320e-02
 -8.2025361e-01   3.3703872e-03
  3.1173210e+00   5.2659184e-04
 -3.3745402e-01   5.9079041e-04
 -1.9881531e+00   5.0865874e-02
  2.1563454e+00   2.2150647e-02
  1.8444573e+00   7.1381233e-03
  1.8822069e+00   6.8215951e-03
 -5.5540544e-01   6.8289272e-02
 -4.1070251e+00   4.5376216e-04
 -1.5912124e+00   4.6463353e-03
 -8.5794383e-01   3.8680453e-02
  3.7796257e+00   2.1192264e-02
 -1.9036793e+00   2.5729928e-03
 -3.0263853e+00   1.0370467e-03
  2.1613290e+00   7.8752404e-03
  1.8612025e+00   3.3622801e-02
  3.0193618e-01   1.4797134e-03
  1.0812278e+00   1.1566997e-03
  1.6782576e-01   3.4065396e-02
  1.0694015e+00   3.8837481e-02
 -3.3386147e+00   5.4863184e-03
 -3.4820044e-01   2.5280628e-02
 -9.4393730e-01   2.9359063e-02
  5.6918806e-01   4.4135251e-03
  3.1182752e+00   1.6313164e-02
  9.6677357e-01   9.0238221e-02
 -9.9489260e-01   3.3976242e-02
 -2.6406176e+00   1.0687811e-02
 -1.9911494e+00   2.1778198e-02
  7.2335954e+00   2.9706960e-03
 -1.0580903e+00   6.0248259e-02
 -3.8350508e+00   9.1992050e-02
 -2.1312344e+00   3.1443257e-02
  4.0604310e+00   1.0122559e-02
 -8.2992119e-01   1.1486885e-03
 -7.2201097e-01   7.6173075e-02
  2.2146173e+00   4.2644688e-03
 -9.8414040e-01   3.3719537e-03
 -3.8519946e-01   6.6675454e-02
  2.0272217e+00   4.8830814e-04
 -3.2184668e+00   6.3301134e-04
 -3.5697608e+00   6.8418653e-04
  6.2758408e+00   4.0278345e-04
  2.5502065e-01   5.2432693e-03
  2.5747344e+00   5.4978304e-02
  7.0973659e-01   2.7732791e-02
  1.0825931e+00   1.2334099e-02
  1.2863203e+00   4.7120587e-03
  3.4854541e+00   5.4796985e-03
 -9.0506101e-01   1.5734045e-02
  2.1446683e+00   2.9143782e-02
 -3.4516096e+00   2.2400906e-02
 -1.5639970e+00   1.2151279e-02
 -9.8975903e-01   1.7469050e-02
 -1.0266545e+00   1.9480610e-03
  2.7595308e-01   6.4947851e-02
  2.2852901e-01   9.3687844e-04
  1.4096495e+00   5.6202961e-03
  1.8345795e+00   5.8526311e-02
 -1.3500431e+00   1.3227688e-02
 -4.1673126e+00   3.3799853e-04
  3.6059994e-01   2.8154363e-03
  7.3218572e-01   1.7117094e-03
  1.0975661e+00   2.2580805e-03
  5.5994115e+00   2.9526220e-03
  8.6218351e-01   8.4142191e-03
  6.5550697e-01   6.4759023e-02
  1.8941066e+00   1.2004070e-02
 -2.9902825e+00   5.0356876e-02
 -5.5222440e-01   6.8003153e-03
 -2.5715988e+00   7.3047988e-03
  3.7677494e-01   1.7602503e-02
  3.0879438e+00   2.4980644e-02
 -1.8601775e+00   2.5883956e-02
  3.6287361e-01   3.8637359e-02
 -8.3645833e-01   8.8351384e-02
  2.0042453e+00   8.9152148e-03
  3.1673505e+00   3.0963166e-02
 -3.1647072e+00   4.1488032e-03
 -9.9812227e-01   5.1387283e-04
 -9.5379347e-01   1.4059355e-02
  3.3665237e+00   6.1011347e-03
 -1.4406388e+00   3.1585056e-02
  2.2123642e+00   5.9475373e-02
  4.8552780e+00   2.0814141e-02
  1.2901931e+00   3.0083754e-04
 -7.9725218e-01   4.7221608e-02
  3.0976286e+00   1.1552156e-02
 -1.8249682e+00   3.1135378e-02
 -2.6984606e+00   3.3512142e-02
 -1.3800836e+00   2.4639061e-02
  3.2357297e+00   1.9862678e-02
 -1.4844643e+00   2.5676514e-04
  3.3650005e-01   3.3077154e-02
 -7.2282958e-01   3.1417146e-02
 -3.2524071e+00   2.6054610e-04
  2.0405766e-01   1.0408372e-02
 -2.8520916e+00   1.9151319e-02
  2.1061466e+00   1.3602948e-02
 -1.4632268e+00   9.6411351e-03
 -8.8150643e-02   3.5741180e-02
 -4.4009962e+00   2.7844904e-02
 -1.3877305e+00   6.1651515e-03
 -1.2424358e+00   1.2804604e-03
 -1.8289298e+00   5.3509511e-04
 -2.1475036e+00   7.8239031e-02
  6.0455453e-01   8.0695897e-02
  2.0512066e+00   8.3335809e-02
 -1.0616566e+00   1.0978197e-03
  2.9108307e+00   4.5129689e-03
 -6.7625743e-01   5.5725526e-02
 -7.9365253e-01   9.5893051e-03
  6.5814441e-01   3.2531940e-03
 -1.3847278e-01   9.6637598e-04
  1.6141700e+00   9.3726730e-03
  1.9221625e+00   1.2574955e-04
  3.5444648e+00   4.0021949e-04
 -8.6887968e-01   5.6985989e-02
 -2.3742454e+00   5.0815358e-03
 -1.8273284e-01   6.1001863e-02
 -1.2552241e+00   4.9859501e-02
  1.6984290e+00   2.2939222e-03
 -3.5820365e-01   1.3113946e-03
 -2.4002223e+00   2.5823740e-03
  1.5081711e+00   1.6383391e-03
  5.2959836e-01   1.2794700e-02
  6.3350812e-02   3.7147965e-02
  1.2794048e-01   9.1166295e-02
 -2.8146091e+00   2.2976885e-02
  2.9156511e+00   5.8730022e-04
 -4.5969148e+00   5.4017821e-04
  3.8754334e+00   5.0107513e-02
  2.4961243e+00   1.2020222e-03
 -1.6308664e+00   1.0601021e-02
 -2.7044530e+00   3.7520251e-03
 -3.1931183e+00   2.5597319e-03
  3.8993328e+00   5.1744985e-03
  3.0488670e+00   2.9473865e-02
  3.9531446e+00   8.8787861e-02
  2.5712004e+00   1.9664695e-03
 -2.9014292e-01   3.4693198e-04
  8.1834322e-01   5.0788738e-02
  9.2720413e-01   7.4557350e-03
 -1.4173239e+00   4.5946863e-02
 -7.0547400e+00   3.2636712e-03
 -3.7983671e-01   4.0890545e-02
 -2.5948541e+00   2.2167431e-03
  3.0999699e+00   5.4707536e-03
 -3.8108523e+00   6.2336035e-02
  6.5592939e-01   2.0896740e-02
 -4.5568684e-01   5.4102577e-02
  2.9925177e+00   2.0607816e-02
  1.1171916e+00   8.4217168e-02
 -1.9696716e+00   6.5179408e-02
  1.2171097e+00   8.8338908e-03
 -1.6400658e+00   3.2214692e-04
  7.5906187e-01   9.8411314e-02
  2.5022790e+00   4.6224266e-02
 -2.7994640e+00   4.7340421e-03
 -2.1299934e+00   1.3896982e-04
 -2.7050853e+00   1.0107230e-02
 -1.3974613e+00   8.6195534e-05
 -4.2255516e+00   6.6619448e-02
  1.9870172e+00   3.3131756e-02
  5.0332755e-01   2.4312306e-02
 -1.0550669e+00   5.0425241e-03
 -4.5240838e-02   3.4824081e-03
  1.5883771e-01   2.4823384e-02
 -3.9302465e-01   1.5298043e-02
 -2.2088912e+00   2.2919148e-02
  1.9821007e+00   2.3049321e-02
  8.7383157e-01   2.7497157e-03
  2.3833172e+00   1.0008284e-02
  1.3703779e+00   7.7573366e-02
  1.8477590e-01   4.4337887e-02
  3.2823441e+00   5.8040860e-06
  8.3604503e-01   9.7622583e-04
  1.2763312e+00   4.7289825e-04
 -2.7356598e+00   7.1760966e-03
  9.6485937e-01   2.3432776e-02
  1.5332496e+00   7.6922610e-02
 -1.8273445e+00   2.6875960e-02
  1.0457801e+00   4.1969374e-02
 -1.8363525e+00   2.5513221e-03
  2.0239195e-01   9.8095484e-02
 -3.4324107e+00   2.0498300e-03
 -5.8712626e-01   7.4357033e-04
 -1.1762850e+00   9.4721857e-03
  9.8701137e-01   2.2847943e-02
  2.9710908e+00   1.9866228e-03
  7.2269547e-01   1.8586213e-02
  8.6773284e-02   4.2410199e-02
 -2.3529861e+00   1.0581873e-03
  3.5859081e-01   8.8182064e-03
  2.5559957e+00   9.6439393e-03
 -2.4753001e+00   4.5426376e-03
 -3.0670352e+00   1.3223606e-02
  3.4490747e+00   1.0564313e-02
 -3.9342356e-01   1.7965667e-02
  1.5067450e+00   2.9395206e-03
  1.0813274e+00   1.4894689e-03
 -5.3219528e+00   5.0315876e-03
  3.2686701e+00   7.9552814e-02
  9.7340369e-01   3.6956498e-04
 -3.0645925e-01   9.5700165e-03
 -2.0970557e+00   8.0499863e-03
  2.0681312e+00   4.8897881e-04
 -4.7365127e+00   2.6951930e-03
 -2.2159530e-01   7.4444078e-02
  2.0135305e+00   2.0824470e-02
  3.7825878e+00   1.1575812e-02
  3.1612384e+00   4.8459098e-03
  8.2217991e-01   8.7699806e-03
  2.5043855e+00   4.3387465e-02
 -3.5803530e+00   7.7706659e-03
  1.0296570e+00   2.6352756e-02
 -4.4432828e-01   1.8322580e-02
  2.0009823e+00   3.1210233e-02
  1.9871595e+00   8.5193925e-03
  4.9629431e+00   1.8262686e-02
  9.0603435e-01   6.3618453e-04
 -3.2874494e+00   9.2649451e-03
  9.3572879e-01   8.4860595e-03
  2.8125110e+00   1.4058664e-02
 -2.1748297e+00   1.7141597e-02
 -2.1041336e+00   9.5108196e-02
  1.2028583e+00   2.2069627e-02
  2.7986951e+00   2.3167913e-03
 -7.4696392e-01   2.1737339e-03
  1.3507893e+00   7.8175198e-03
  1.8015269e+00   9.8302690e-03
  1.0548221e+00   2.3089156e-02
 -2.7691686e-01   1.4174603e-02
  6.8228143e-01   2.9890456e-03
 -1.5722793e+00   9.4263759e-03
  7.5410771e-01   3.0756993e-03
  2.3725748e+00   7.9349831e-02
 -2.1745110e+00   1.5092541e-02
  2.7518313e+00   8.5888430e-02
 -5.8581531e-01   1.8702138e-02
  3.0378637e+00   4.6986686e-03
  1.4134619e+00   5.3240862e-02
  1.0969070e+00   8.5856356e-03
 -1.5768424e+00   1.4106344e-03
 -6.5590727e-01   5.4380065e-03
  6.1442488e-01   1.4631744e-02
 -6.0625440e-01   7.4976902e-03
  9.2679411e-01   3.1836219e-03
 -4.2129460e-01   3.5133685e-03
 -4.2657280e+00   8.0423728e-03
 -4.9740748e+00   7.6354952e-03
 -3.4806934e-01   2.4298748e-03
 -8.6509144e-01   3.4406523e-03
 -7.5138277e-01   8.5893366e-03
  2.7169516e+00   4.9964902e-03
 -2.0764456e+00   1.5218687e-02
 -5.4050345e+00   1.0421742e-02
 -5.4383749e-01   7.7234261e-02
 -2.4011133e+00   2.0019738e-02
  1.6558208e+00   2.5196545e-02
  6.9888592e+00   8.2084961e-02
 -6.0668105e-01   3.7033685e-02
 -2.5233972e+00   1.3519546e-02
 -8.2332540e-01   2.4771309e-02
  2.0173349e+00   1.0686107e-02
 -5.4894485e+00   1.8759599e-02