29
Lattice="8.58119965 0.0 0.0 0.0 8.58119965 0.0 0.0 0.0 8.58119965" Properties=species:S:1:pos:R:3:forces:R:3 virial="7.73632188317515 -1.7931174943537311 -1.6714606683158044 -1.7931174943537311 7.038029095257232 -0.8329190800604499 -1.6714606683158044 -0.8329190800604499 5.211577018528033" Config_type=aimd1 Weight=1.0 energy=-112.41863595 pbc="T T T"
Na       1.13645324       2.80884435       2.17713264      -0.03974169      -0.00551082       0.61655512
Na       7.04747300       4.58832077       1.69738266      -0.03773542       0.00351569       0.32927157
Na       3.46669962       0.02865949       0.10031972      -0.31835146       1.76751262      -0.62372685
Na       3.78265408       2.40193940       6.63453726       0.49850253       0.17178151      -0.11080561
Na       1.25706955       4.64540343       8.50111200       0.25964280       0.60699852      -0.23952028
Na       1.88408159       6.79928111       2.19226739      -0.29917938      -0.02240371      -0.12137274
Na       4.30119417       4.76402615       0.05908774      -0.51534722       0.13044295       0.18335247
Na       4.32767250       6.53954029       2.26162288       0.37479890      -0.35263042       0.37104483
Na       1.38488815       4.90404559       4.26999139      -0.04911840       0.24215655      -0.90584626
Na       1.64847008       7.20667407       6.16688780       0.49540119      -0.75382332       0.35181323
Na       3.73372150       0.50733056       4.30929903      -0.40934997       0.01716430       0.71823208
Na       1.30055092       2.02875186       6.39175607       0.14531157       0.42646214      -0.29092608
Na       3.79309182       2.40769532       2.03048106       0.14399226       0.63446636       0.09537997
Na       4.48601005       7.10263870       6.48191264      -0.59868172      -0.60334985      -0.17548546
Na       3.83532067       4.46183775       4.63740781       0.45269650      -0.08729611      -0.73713752
Na       7.43370919       4.41970346       5.86670164      -0.15634793       0.01324469      -0.05021136
O        4.84590384       4.31377078       2.23578858       0.72282846       0.58477724       0.01183457
O        3.04170009       6.44452719       4.49064638       0.24520885       1.15785548      -0.80289864
O        5.25991060       4.79297020       6.33926771      -1.38220172       3.79408237      -2.97825938
O        4.81580546       0.27515548       1.91413578       4.81054535       0.40983290      -1.27179590
O        1.73909184       2.14222381       0.16236282      -0.15295362      -0.40137084      -0.24589394
O        0.67374311       4.94568492       2.19560977      -1.01691743       0.13398234      -0.77021501
O        3.06685665       6.69669724       8.40404507      -0.17089625      -1.86814844       0.40771771
O        2.28287534       2.94175529       4.13381813       0.58531373      -1.62658137       0.29305710
O        0.93156156       4.69654326       6.23544266      -0.64445917      -0.14689074       1.43785169
O        2.84075594       3.04219746       8.51358700       0.26195665      -0.24380925       0.28325394
O        5.63980674       3.84707975       7.15132808       1.76973776      -3.99702313       2.93241986
O        3.57550503       0.17255703       2.30787872      -4.98292012      -0.73612202       0.61153759
O        3.12878683       0.30781862       6.32084850       0.00826495       0.75068440       0.68077330
29
Lattice="8.58119965 0.0 0.0 0.0 8.58119965 0.0 0.0 0.0 8.58119965" Properties=species:S:1:pos:R:3:forces:R:3 virial="11.20376309610327 -3.911456963407102 -0.9513013735369592 -3.911456963407102 5.600454467776801 1.01776876871451 -0.9513013735369592 1.01776876871451 -5.765817425435446" Config_type=aimd1 Weight=1.0 energy=-111.8470489 pbc="T T T"
Na       1.87493720       2.69303849       1.94693373      -0.88185269      -0.25744274       0.63822242
Na       7.25036860       4.07836625       3.75311278       0.08666315       0.61183471      -0.57863290
Na       3.14716269       0.53242508       0.09319784       0.00760549      -1.33578274      -0.77615765
Na       4.27628235       2.30117586       6.24257423      -0.36762339       0.07671293      -0.24930202
Na       1.32368634       4.30089950       8.46771912       0.17753710       1.45711965      -0.36339391
Na       1.45091645       6.88208196       1.86296454      -0.36439980      -1.12172003      -0.49202164
Na       5.03292706       4.75846768       8.46470257      -0.96047164      -0.24104242       1.03714744
Na       4.29942894       6.66572906       2.40337872      -0.09713510      -0.03704176      -0.10956843
Na       1.49465259       4.69000910       3.76250413      -0.01763097       0.52107201       0.86588589
Na       1.49314067       6.80159425       6.37587596       0.71476276       0.13407391      -0.08473906
Na       2.45659975       0.12363750       4.21798468       0.46786557       0.26291364       0.93818751
Na       1.41868237       2.42192458       5.83235882      -0.08906335       0.31915772       0.67981206
Na       4.40405890       2.50039699       2.10405875       0.37060293       0.33967317       0.46255611
Na       4.18457747       6.92293551       6.67807484      -0.67876135       0.11273489      -0.62038604
Na       4.28870681       4.60773943       4.16004563      -0.46302069       0.00472961       0.41924426
Na       7.56801844       5.22295283       7.30026913      -0.17272238      -0.05925237       0.15855572
O        5.31357957       4.71212672       2.14180445       0.15145839      -0.74156544       0.15854255
O        2.91905356       6.45979546       4.34425163       0.00910822       0.11700691      -0.15511405
O        5.35790824       4.90326933       6.27483414      -4.58757899       6.37679084       0.66988706
O        3.74907610       0.27397917       2.39135406       3.94196877       0.67245372       0.32192894
O        2.02493932       2.31700208       8.26629253      -3.77740801      -1.55818731      -1.55611858
O        0.23735118       4.64479734       1.85941150       0.35808168      -0.12824821       0.15313386
O        2.67082476       6.44193455       8.39458756       0.41630489       0.06393400       0.27091202
O        2.63818626       2.80857327       4.13016984       0.97307637      -0.18380308      -0.74916426
O        0.57890541       4.87058020       5.98065234      -0.33190445      -0.76473200      -0.19613980
O        3.20295191       2.75231716       0.09209695       4.32977403       1.86769580       1.13614450
O        6.14023785       3.91559462       6.14952322       4.48003674      -6.43040023      -0.91368268
O        2.45896335       0.15814327       2.10020279      -3.74878386       0.35868035      -1.07436154
O        2.90489415       0.52082750       6.40197757       0.05351058      -0.43736554       0.00862222
29
Lattice="8.58119965 0.0 0.0 0.0 8.58119965 0.0 0.0 0.0 8.58119965" Properties=species:S:1:pos:R:3:forces:R:3 virial="-2.834561636382934 0.5899560390507824 0.11635923394310968 0.5899560390507824 -3.5703813326637985 -0.19592876249612123 0.11635923394310968 -0.19592876249612123 -2.6281816643307034" Config_type=aimd1 Weight=1.0 energy=-64.17814291 pbc="T T T"
H        4.37341647       3.79059057       6.32405375      -0.00324897       0.17630566      -0.01646077
H        2.10385915       6.32796429       4.44355156       0.06646750      -0.26606300      -0.15068598
H        6.41786334       0.26416622       4.04828837       0.51477902      -0.61128740       0.44319227
H        6.24039555       6.80720421       8.37499334      -0.23019354      -0.10485571      -0.11560205
H        4.22568700       2.87797621       2.11609320       0.06088807      -0.34823366       0.66870638
H        0.25968306       2.90869450       2.15838650       0.20106258       0.22821299       0.17959093
H        2.50332189       6.74046376       0.06169333      -0.15680117      -0.13531737       0.05917802
H        0.33035070       3.91218068       6.37259769      -0.23342219      -0.10832295      -0.22103243
H        2.23783065       4.01690289       8.10210321       0.02823262      -0.26428335       0.58283529
H        4.17657139       2.27983116       2.73186902       0.20193334       0.58470088      -0.37218712
H        6.83973314       8.15314676       4.45374156      -0.60749028       0.68734887      -0.39266169
H        6.98589800       6.97912743       8.48361493      -0.04741592      -0.10390442       0.14419604
H        2.02843813       8.49913695       6.46485039      -0.07743772       0.17541564      -0.08209457
Na       0.36368454       7.90640354       7.99725004       0.38660022       0.31218791       0.22613881
Na       2.32340769       1.85508434       2.00626757      -0.82616740      -0.15191644      -0.21226142
Na       3.82820557       8.31481836       8.22682193       0.22213426       0.07494859       0.01078641
Na       6.50802086       1.86210908       2.29662156       0.25519278       0.10677325      -0.35568634
Na       8.53139308       4.07024097       0.06906982       0.19252069      -0.20562114       0.02990446
Na       2.01355507       6.01965003       2.15805938       0.08780632       0.30729370      -0.26827271
Na       4.40361594       4.30994846       0.17959773      -0.10136797       0.03626349      -0.40851952
Na       6.72678378       6.64891334       2.24748544      -0.17080900      -0.06318286       0.19367181
Na       0.45605781       8.14687536       4.60435054       0.29247957      -0.05512611      -0.04424071
Na       2.09651948       2.34709171       6.74003221       0.13938757       0.08704599      -0.14619931
Na       3.59961340       8.24563793       4.57299089       0.18438999       0.03276224      -0.03170932
Na       6.22943779       2.35403081       6.05531212      -0.12101350      -0.10656284       0.31438450
Na       0.18513870       4.05734059       4.17992689      -0.08598547       0.09659164      -0.06823211
Na       2.37680909       5.83018735       6.62799315      -0.07385558      -0.32580912       0.05266266
Na       4.38448664       4.34100485       4.23586893      -0.00509171       0.10741313      -0.09911606
Na       6.55675838       6.22668262       5.91086625      -0.09357411      -0.16277761       0.07971453
29
Lattice="8.58119965 0.0 0.0 0.0 8.58119965 0.0 0.0 0.0 8.58119965" Properties=species:S:1:pos:R:3:forces:R:3 virial="-0.7797846470044582 -1.0896864822903607 0.9082184247095209 -1.0896864822903607 0.8150423171557434 -0.6389803739547797 0.9082184247095209 -0.6389803739547797 -2.6913353317706155" Config_type=aimd1 Weight=1.0 energy=-62.89755087 pbc="T T T"
H        0.03407037       1.96405056       6.45262244      -0.57941581      -0.18522008       1.22110068
H        2.13587638       8.53322980       2.46043014      -0.06050607       0.01319404      -0.53088854
H        0.08404298       5.47228285       4.57303620       0.12632387       1.19292182      -0.42298905
H        6.39543106       8.18563175       2.17176631       0.46403882       0.00377239       0.11581202
H        3.87419582       2.19766239       8.53452590       0.06702794       0.30813103       0.60448684
H        5.08266446       3.64270089       2.34729080      -0.29008921       0.09048600       0.00232192
H        1.41828815       5.90568972       0.02525962       0.26554773       0.15885773      -0.02263709
H        8.30361938       1.94437799       7.26085328       0.45861120       0.00731603      -1.20615687
H        4.54783682       5.87283754       6.24725536      -0.03018247      -0.08204160      -0.05158793
H        3.97960428       2.37677451       0.74063888       0.10404460      -0.08491808      -0.35203287
H        0.19249150       6.24210742       4.12009001      -0.14124960      -1.12994326       0.44388679
H        5.73465208       7.78982923       2.06756231      -0.30677143      -0.03723059      -0.18057147
H        1.87485851       0.09696944       1.69810056       0.07287511       0.06339057       0.40687343
Na       8.46935461       8.44018557       0.10288678      -0.00661954      -0.17305592      -0.12517619
Na       2.35093566       2.49644518       2.23814558      -0.14479399       0.07995885       0.19186064
Na       3.84711888       8.36917400       0.12954239       0.14546391      -0.33055077      -0.14906364
Na       6.12393666       1.92814038       1.77141490       0.42712336       0.15490324       0.01532288
Na       0.02209024       4.21544842       8.26042076      -0.06271591       0.04976998       0.12055392
Na       1.79061284       6.01887180       2.22504732       0.16885916      -0.05678531      -0.04708861
Na       4.40258740       4.75316381       8.22106077       0.22248598       0.05355741       0.15941455
Na       6.49770978       5.43978644       2.43045498      -0.02164818      -0.04390208      -0.16620865
Na       0.18972621       0.00712617       4.22479627      -0.01418788       0.19353331       0.02837102
Na       2.37574983       2.17310266       6.55945537      -0.04126476      -0.26067987      -0.18991023
Na       4.79982855       8.28773592       4.17073437      -0.35057495      -0.20525070       0.19232768
Na       5.76020956       1.83803581       6.29496005       0.39283627      -0.14043204       0.24533012
Na       0.00813472       3.28007106       4.60763980      -0.12713342       0.04135845      -0.26907785
Na       2.43291238       6.32239775       6.51746035      -0.29080508       0.14285313      -0.15218954
Na       4.38725279       4.14517209       4.60299874      -0.06252510       0.21769179      -0.16546515
Na       6.97117566       6.38611127       6.05206637      -0.38475456      -0.04168549       0.28338118
29
Lattice="8.58119965 0.0 0.0 0.0 8.58119965 0.0 0.0 0.0 8.58119965" Properties=species:S:1:pos:R:3:forces:R:3 virial="10.067627928112309 -1.8378385909392265 0.45380830517349424 -1.8378385909392265 8.378331245992293 0.6673466857502752 0.45380830517349424 0.6673466857502752 8.520643559165856" Config_type=aimd1 Weight=1.0 energy=-59.97702409 pbc="T T T"
H        4.18915657       0.81356226       1.77400470      -0.45855967       0.64338894       1.23452704
H        8.18463041       2.03376388       7.81281852      -0.17525512      -0.20838129       0.22818957
H        7.18629930       4.87623787       1.79456869       1.13976251       0.41204634       0.42911860
H        2.64837411       4.02551893       8.37914466      -1.39509021       2.12600672       0.38116692
H        1.57283435       5.62766932       1.54119933      -0.37476837      -0.58235281      -0.56218237
H        6.69751357       5.87006144       4.70693732       3.20904912       2.01823933      -1.25183197
H        4.37902883       0.50398192       1.14060010       0.41239378      -0.65116774      -1.13597359
H        6.56010720       5.25788166       1.10453323      -0.07570570      -0.95492046       0.48652294
H        3.03951669       3.45768808       8.18662451       1.10509387      -1.63086491      -0.42811867
H        8.40366081       2.50082279       7.23806814       0.21906014       0.03568521      -0.03337640
H        5.73244431       5.10330534       0.75813251      -0.96245544       0.42820446      -0.33879168
H        2.25638775       6.00596902       1.58833363       0.49941048       0.31950388       0.11119741
H        6.15425970       5.52998163       4.91160580      -3.18755578      -1.92137791       1.17596928
Na       5.13565680       2.42179492       0.30960093       0.92295616      -0.16952592       0.33260689
Na       5.16851138       0.79515464       4.14406348       0.01829645      -0.12338642      -0.34159942
Na       2.07534477       7.58057496       5.74093249       0.56976217      -0.67529130       0.26159085
Na       6.98121738       3.36573314       5.53346440       0.22506007      -0.03205485      -0.33544692
Na       0.38528359       5.50254822       7.62736275       0.06907403       0.29507100      -0.49575930
Na       7.18087195       7.34334324       1.07917716      -0.12179793       0.43279530       0.02524532
Na       0.50005345       6.17424866       3.15936490      -0.25682822       0.01530775       0.62855450
Na       4.23483516       6.04475021       3.24371621       0.26136826       0.02795432       0.38870274
Na       1.53024535       0.55108653       0.19503024      -0.05525839      -0.10360176       0.06196395
Na       3.93395684       2.44792536       6.38401746      -0.36549072      -0.09468474      -0.55073953
Na       1.36761153       1.35761855       4.80208111      -0.27597266       0.73236931      -0.68967611
Na       7.39540718       8.40918830       6.20484544      -0.19057480      -0.13650858       0.21687215
Na       3.03036974       3.41800526       2.11211418       0.26693626      -0.12132783       0.71340627
Na       0.48791354       3.46934298       1.02112809      -0.94322959      -0.44439130       0.34410658
Na       5.26253464       5.23205851       7.40310529       0.12691880       0.02508345      -0.80162775
Na       3.98338318       7.05171108       0.24854707      -0.20659950       0.33818183      -0.05461732
29
Lattice="8.58119965 0.0 0.0 0.0 8.58119965 0.0 0.0 0.0 8.58119965" Properties=species:S:1:pos:R:3:forces:R:3 virial="5.8837120824878015 2.868204716110392 1.2750013543460106 2.868204716110392 11.39719795606711 -1.438508212563326 1.2750013543460106 -1.438508212563326 9.112984769433439" Config_type=aimd1 Weight=1.0 energy=-59.60977102 pbc="T T T"
H        8.14476009       7.84417775       0.92320159      -0.66846706      -0.01946714       0.52618309
H        6.49309541       3.56884362       1.40892658       0.20842376       0.13865867      -0.23396168
H        2.50451133       1.28663813       1.67528950      -0.92592530      -1.96745322       0.08421783
H        0.82116426       6.86089180       7.35363338      -0.44271709       0.57786780      -0.86351597
H        7.66253040       3.26112961       4.04660603       0.30958583       1.32212219      -1.26628134
H        3.25414726       5.39211325       2.91050771      -0.37492518      -0.01767976       1.45036927
H        7.51631113       7.43450072       0.67367025      -0.04751929      -0.19246961      -0.26715786
H        1.99830697       0.61135796       1.82833966       0.91749466       1.22715642       0.20482914
H        1.05234933       6.26521539       7.79333302       0.27650269       0.09759065       0.82959876
H        5.73271084       3.60250947       1.58913434      -0.16707069      -0.21101237       0.05523458
H        7.38963460       1.99153666       5.29193924      -0.00047487      -0.94772065       0.93576071
H        7.83081819       2.62241599       4.58187440      -0.61421099      -0.24317291       0.48104428
H        2.96358732       5.27138615       3.71325946       0.49617274       0.06048324      -1.78025718
Na       6.98234272       3.21671246       7.47770886      -0.08768943      -0.86509092      -0.16988128
Na       5.45546627       2.94008187       4.33744434      -0.21516086       0.06620167       0.38217046
Na       2.49949219       6.13965604       5.58545205       0.17219496       0.36269568       0.05572951
Na       8.06046869       5.37734938       4.27690028      -0.00371638      -0.05748290       0.21998688
Na       1.17068913       4.36799289       7.91868255       0.39022782      -1.17640721       0.10333596
Na       6.62068798       0.44614163       2.85005161      -0.11142620      -0.46549670       0.12205986
Na       0.98630224       6.08821201       1.78788196       0.20829285      -0.15972257       0.52825439
Na       5.95985271       5.79271934       1.89150287       0.08786528       0.32812125       0.57307781
Na       1.15039322       8.35315041       0.15835857       0.87610071       1.08319337      -0.91645495
Na       1.57778296       2.39645721       5.49728108       0.26503296      -0.05620929      -0.03522802
Na       8.06978229       8.53999427       5.50552796       0.05589851       0.08223398       0.04601033
Na       7.25173953       6.06819010       7.22078088      -0.27751122       0.44104186      -0.10899737
Na       3.07467816       3.07309913       2.00601820       0.24329818       0.75619211       0.21405777
Na       8.43465044       2.66812847       2.17927769       0.31849261       0.04185069      -0.30353545
Na       4.55518721       5.18199442       8.26268766      -0.73628998      -0.06846286      -0.47155051
Na       4.87818674       0.69825771       0.39505681      -0.15247902      -0.13756146      -0.39509900
17
Lattice="8.58119965 0.0 0.0 0.0 8.58119965 0.0 0.0 0.0 8.58119965" Properties=species:S:1:pos:R:3:forces:R:3 virial="2.999597631020938 1.1727044409405079 0.4556088064663837 1.1727044409405079 4.229170490391689 -0.8833907100587338 0.4556088064663837 -0.8833907100587338 3.465269591923808" Config_type=aimd1 Weight=1.0 energy=-27.29215873 pbc="T T T"
Na       7.18678860       2.65187147       5.87247181      -0.54471946      -0.22676700      -0.68981735
Na       6.61579180       8.08608528       6.07864758       0.82208997      -0.22258967      -0.66967967
Na       7.85568187       7.39681149       0.20396688       0.33163688      -0.22626461      -0.23341545
Na       7.02454618       4.14583782       1.64809740      -0.04693100       0.30350364       0.01871835
Na       1.15390422       3.86765910       3.42980433       0.18516065      -0.16982032       0.19129219
Na       2.25906345       6.83311369       4.06207707      -0.11872632       0.35468005       0.48838752
Na       2.18191340       6.31070467       1.12957086       0.22028283      -0.14128177      -0.38805079
Na       5.92976574       1.90916838       0.07925759       0.02301722      -0.33547786       0.20143527
Na       4.70464228       1.29738317       4.39896914      -0.09618929      -0.02753887      -0.51749521
Na       4.40298222       3.38641383       6.83180093      -0.02929359       0.57938872       0.16397420
Na       5.16980980       5.21780257       4.61607649      -0.11827488      -0.12044867      -0.06113549
Na       0.61593380       2.94212128       7.38696096       0.35571022       0.58228353       0.81120774
Na       6.43961145       7.16027167       2.90002775      -0.13181425       0.07309205      -0.15426672
Na       2.79980251       1.33056821       6.81155686      -0.21181273      -0.80769842      -0.20536215
Na       8.16746140       1.05347707       2.42148067       0.35657068       0.14429043       0.18427645
Na       4.72368001       8.10531326       7.75837656      -0.85703807      -1.58030658       1.17348761
O        5.21584228       1.08644406       6.57570644      -0.13966886       1.82095536      -0.31355650
17
Lattice="8.58119965 0.0 0.0 0.0 8.58119965 0.0 0.0 0.0 8.58119965" Properties=species:S:1:pos:R:3:forces:R:3 virial="-3.1055766665920674 0.1297233731493975 -0.09252243787056068 0.1297233731493975 -3.9411243278804724 -0.00030687638022087343 -0.09252243787056068 -0.00030687638022087343 -1.7280119047715958" Config_type=aimd1 Weight=1.0 energy=-27.06514128 pbc="T T T"
C        5.78356741       6.31367016       8.18664553       0.20955674      -0.10062818       0.10498472
Na       8.36173341       8.52935985       7.86643317      -0.19251589       0.04280375       0.36367848
Na       2.44551353       1.89552179       2.44530346      -0.04511155       0.10899723      -0.08196306
Na       4.30841019       8.43259713       8.42177769       0.27146783      -0.27298815      -0.00591746
Na       6.57599065       2.46847055       2.37186504       0.02088736      -0.32272963      -0.05034258
Na       7.62433102       4.35840563       7.99829386      -0.01503997       0.25054189       0.10447905
Na       1.78989863       7.19640736       2.07377819       0.09482092      -0.40599559      -0.45753501
Na       4.44250396       4.19146637       0.32703450      -0.02524010       0.39354618      -0.11187358
Na       6.11862850       6.42155746       2.23309468       0.14259581       0.14515563      -0.43942698
Na       0.66465124       8.07275010       4.63157414      -0.26226842       0.49519408       0.03356124
Na       2.86434815       2.38250710       6.62895442      -0.57902763      -0.15840414      -0.02649843
Na       3.90965463       7.98862551       4.57600924       0.15328669       0.16640221       0.03163323
Na       5.88896565       2.15803218       5.76659062       0.40763701      -0.16817478       0.06346361
Na       0.29461884       4.42908237       3.91208457       0.05021461      -0.06118013       0.09872047
Na       2.01344703       5.96599058       6.64915851       0.22925410      -0.07734628       0.21858882
Na       4.18367336       4.36243107       4.25127365      -0.11779098       0.21699490      -0.08142294
Na       6.66437675       6.70855526       5.85237979      -0.34272655      -0.25218898       0.23587041
24
Lattice="8.58119965 0.0 0.0 0.0 8.58119965 0.0 0.0 0.0 8.58119965" Properties=species:S:1:pos:R:3:forces:R:3 virial="1.7693632574101668 1.374378006260663 -0.25141481935807036 1.374378006260663 0.6488145888069115 -1.245317310822505 -0.25141481935807036 -1.245317310822505 1.792702419094011" Config_type=aimd1 Weight=1.0 energy=-71.87569696 pbc="T T T"
Na       2.22879670       8.21442605       8.09040360      -0.28767742      -0.06211545      -0.31352139
Na       7.95278458       1.92967333       2.72378776      -0.15016396      -0.76001219      -0.17636792
Na       4.53056192       8.55024048       1.18835533       0.11821749      -0.04539086       0.22812202
Na       5.82727815       4.32237575       1.83055661       0.01593549       0.23372301      -0.34480815
Na       8.26731207       4.67371564       7.87335400       0.28314386       0.06279172       0.16844622
Na       2.62965963       6.19929984       2.34246705       0.16378746      -0.25305755       0.09067994
Na       2.88855460       3.36436032       0.59083482      -0.11740072      -0.22626327      -0.12718108
Na       7.77814387       7.23590327       1.30006479       0.00811393      -0.25952208       0.18449109
Na       7.58258202       7.56809567       5.21961783       0.22923907       0.19281358       0.36164746
Na       1.30278778       2.14576338       6.05113411      -0.14646656      -0.18017153      -0.19298656
Na       4.67872474       2.35574268       4.25659605      -0.33526614      -0.15195741       0.12400600
Na       6.31529947       1.09370136       7.80341765       0.50288799       0.00329400      -0.17798864
Na       7.69927218       4.69346098       4.55476716       0.21552530      -0.52045032      -0.23997628
Na       2.54122351       5.25211998       5.39974211      -0.27649450      -0.18715531       0.62309341
Na       5.56040911       4.06303216       6.84188702      -0.45044513      -0.38082894       0.04398015
Na       4.51084807       8.01608372       5.57410668       0.04259885      -0.04280161      -0.08104371
P        1.65504087       3.26845864       3.39875695       1.27519126      -0.27354456       0.90188906
P        5.82305577       6.74297951       3.30105733      -0.26546441       0.32689707      -0.16610908
P        4.98161938       5.13467408       4.40899567      -0.26767794       0.47207750      -0.61606726
P        5.78636883       6.82965804       7.77819493       0.70136858      -0.36849403       0.18047841
P        3.81871082       1.67576353       7.06259728      -0.44669512       0.31255476       0.34917430
P        0.46030456       4.22465373       2.02549984      -0.76598346       1.40357096      -1.32365675
P        3.91783286       5.89754059       8.34109691      -0.23135255       0.11414483       0.13701658
P        7.19645927       1.64949081       5.25314999       0.18507862       0.58989766       0.36668220
24
Lattice="8.58119965 0.0 0.0 0.0 8.58119965 0.0 0.0 0.0 8.58119965" Properties=species:S:1:pos:R:3:forces:R:3 virial="8.981090599569509 -0.8358132403562678 -2.1211345489288784 -0.8358132403562678 7.358937963824836 3.4311801573086753 -2.1211345489288784 3.4311801573086753 5.65437154228675" Config_type=aimd1 Weight=1.0 energy=-68.56675338 pbc="T T T"
Na       0.60714021       3.38595723       1.29383990      -0.84285988      -0.18701232       0.03435270
Na       5.37425800       4.60828399       7.17086696       0.77442635      -0.37586808       0.88165992
Na       6.31853390       7.18596266       0.00421414      -0.06750222       0.24108907      -0.73011468
Na       6.14654735       5.50429055       2.25990724      -0.13687269       0.09714014       0.37560966
Na       2.85293601       4.39466807       7.25566723      -0.44448459      -0.30042668       0.30306762
Na       3.85916517       1.74071016       5.87373351       0.18606678      -0.26812991      -0.13375705
Na       7.53848692       5.69498060       5.37023591      -0.36633110       0.37161801      -0.36876329
Na       1.99141086       0.91073808       0.08036834       0.11333539      -0.69426332       0.17608664
Na       3.48236040       7.73221351       3.32328796      -0.70182905      -0.24997966      -0.39468411
Na       8.40756989       0.49407767       4.94490240       0.37712478      -0.46509723      -0.16175426
Na       7.32404755       0.30916312       2.00809597       0.13034621       0.42176214       0.16053102
Na       0.04398448       2.76823880       6.52336310      -0.76310550       0.03469205       1.53803354
Na       6.77598289       3.01463250       3.87414477      -0.09347473      -0.08340898       0.34773921
Na       1.67575314       6.12862397       5.70523830       0.46278726       0.49177664      -0.34220479
Na       2.61741589       4.44564674       2.42335395       0.73745200       0.60156441       0.63032306
Na       4.64160487       2.05722806       1.97010305      -0.05480503      -0.16016789      -0.23557209
P        2.29648091       1.78811297       3.53240681       1.71707777      -3.13601897      -2.76447187
P        4.97127294       7.21460053       5.88644793       0.03580570       0.41234947       0.18601437
P        4.52738808       5.38541794       4.85467675      -0.31419563      -0.73337489      -0.74988523