12
Lattice="13.404502868652344 0.0 0.0 0.01955082081258297 8.475943565368652 0.0 0.18797697126865387 -0.13600149750709534 4.422821521759033" Properties=species:S:1:pos:R:3:forces:R:3 virial="0.26851523 -1.2773643 -0.464622 -1.2773643 1.2730845 1.3921591 -0.464622 1.3921591 0.43274876" Config_type="scf-Na121" Weight=1.0 energy=-14.26038607 pbc="T T T"
Na 13.38110256 7.833885193 3.742998362 0.1298836768 -0.068848297 0.1137128696
Na 2.42467761 2.380039454 2.784591675 0.8413876891 -0.8653487563 -1.151566148
Na 4.841490269 0.5990350842 3.885847569 -0.4790358245 0.02934161946 0.4733724594
Na 7.411972046 1.860166311 2.337531567 -0.2433224767 1.151627421 -0.7246590257
Na 8.133613586 0.07437483966 4.020685196 1.339373827 -0.2953928709 1.114836454
Na 11.43631172 1.146867871 1.696058035 -0.2118351758 0.2877556086 0.02178392932
Na 1.034176707 3.464873314 4.234045982 -1.242498159 0.698107183 1.085213542
Na 2.246545553 5.879101276 2.275854349 0.09232039005 0.268412739 -0.101371482
Na 4.674396038 4.314221859 0.6019083858 0.2089260072 -0.01822933927 -0.1261034459
Na 6.695297241 7.367431164 2.352851868 -0.5040411353 -1.320568204 -0.8570483923
Na 9.10529995 4.208076477 3.852492332 -0.1903396398 -0.1039081514 0.08862999827
Na 10.68587494 5.894664288 1.536182642 0.2591807842 0.237051025 0.06319923699
8
Lattice="8.581199645996094 0.0 0.0 0.0 8.581199645996094 0.0 0.0 0.0 8.581199645996094" Properties=species:S:1:pos:R:3:forces:R:3 virial="-2.1964383 -0.35739675 0.17347108 -0.35739675 -2.2739806 0.067772955 0.17347108 0.067772955 -2.794572" Config_type="scf-Na81" Weight=1.0 energy=-8.56542394 pbc="T T T"
Na 6.458193779 5.881927013 2.505356073 -0.03562577069 0.09779655188 -0.1791937202
Na 2.251141071 5.566358089 1.820050001 -0.04791554064 -0.1235634014 -0.005204380024
Na 3.065657139 2.699877024 4.39511013 0.03105572052 0.05233164132 0.1039241999
Na 2.146816015 1.057973981 0.5683979988 -0.02653725073 0.04659051076 -0.1698765308
Na 6.681056976 8.171837807 6.413321018 -0.1266926229 0.2807204127 0.1058476791
Na 1.682500005 6.443235874 5.626716137 0.1563076526 0.001630770043 -0.07698108256
Na 7.616322041 4.011860847 5.744409084 0.106967479 -0.2099040747 0.1340626627
Na 4.423113823 4.782330036 7.251440048 -0.05755966902 -0.1456023902 0.08742117137
1
Lattice="3.545417070388794 -0.0 -0.0 -1.0636314153671265 3.330077886581421 -0.0 -1.196340799331665 -1.6179641485214233 2.899155855178833" Properties=species:S:1:pos:R:3:forces:R:3 virial="-0.037837025 -0.0033551205 -0.033880137 -0.0033551205 0.020085083 -0.036858633 -0.033880137 -0.036858633 -0.018550564" Config_type="scf-Na11" Weight=1.0 energy=-1.47304016 pbc="T T T"
Na -0.936188519 2.678345203 0.7119079828 0.00138234999 -0.000295470003 -0.0002059200051
2
Lattice="4.12553071975708 0.0 0.0 0.0600232295691967 4.118669033050537 0.0 -0.2025160938501358 0.15227928757667542 4.292937278747559" Properties=species:S:1:pos:R:3:forces:R:3 virial="6.4400573 -5.197525 5.5241117 -5.197525 3.569546 -4.512175 5.5241117 -4.512175 3.822853" Config_type="scf-Na21" Weight=1.0 energy=0.92117742 pbc="T T T"
Na 3.727478981 0.782897532 3.534402609 6.576657772 -5.383901119 5.762297153
Na 2.681485415 1.619534254 2.650864601 -6.576657772 5.383901119 -5.762297153
11
Lattice="8.581199645996094 0.0 0.0 0.0 8.581199645996094 0.0 0.0 0.0 8.581199645996094" Properties=species:S:1:pos:R:3:forces:R:3 virial="-5.3160152 0.09670022 0.18910855 0.09670022 -5.3282633 0.47776598 0.18910855 0.47776598 -5.016895" Config_type="scf-Na111" Weight=1.0 energy=-13.48741241 pbc="T T T"
Na 3.306200027 4.705542088 1.660449982 0.004685460124 -0.09717918932 -0.05554214865
Na 2.057290077 5.406104088 4.895457268 0.03458036855 0.1280142367 0.07222592831
Na 2.04300189 2.336272955 7.041657925 -0.04771310836 0.05486695841 0.08894316107
Na 0.3738079667 6.072349072 0.091222018 -0.001863250043 0.005236810073 -0.0109877903
Na 5.979416847 6.960674763 2.541350126 0.06069032848 0.03484829143 0.06998118013
Na 5.124169827 1.613775969 0.6625140309 0.1016710997 -0.009059660137 -0.08277203143
Na 6.276528835 5.229435921 6.436911106 -0.1095554829 -0.04944600165 -0.01680414937
Na 4.55551815 1.843309999 4.314926147 0.001443039975 0.02617879957 0.02014808916
Na 7.92733717 3.717518091 3.416391134 -0.02320682071 -0.06802684069 -0.09922438115
Na 8.179742813 0.2605380118 5.352469921 -0.08602418005 -0.05822689831 0.04463158175
Na 1.373587012 0.4698800147 2.202052116 0.06529253721 0.03279351071 -0.03059943952
4
Lattice="8.581199645996094 0.0 0.0 0.0 8.581199645996094 0.0 0.0 0.0 8.581199645996094" Properties=species:S:1:pos:R:3:forces:R:3 virial="-1.3878824 -0.044351745 -0.5093472 -0.044351745 -0.563339 0.14230573 -0.5093472 0.14230573 -1.3522574" Config_type="scf-Na41" Weight=1.0 energy=-3.19362433 pbc="T T T"
Na 6.3886199 6.75853014 3.656280041 0.0337276794 -0.005467279814 -0.07740668207
Na 7.120005131 7.703336239 7.011823177 -0.02994069085 -0.1899990439 0.1062197611
Na 3.294447899 5.778202057 5.076096058 -0.07211048901 0.09354811162 0.01836832054
Na 0.3593279719 5.503531933 1.418201923 0.06832350045 0.1019181982 -0.0471814014
4
Lattice="8.28555679321289 -0.0 -0.0 0.09193159639835358 4.139837741851807 0.0 0.1697998195886612 -0.14320795238018036 4.082630157470703" Properties=species:S:1:pos:R:3:forces:R:3 virial="3.3422983 0.4516825 0.06987191 0.4516825 0.19267192 0.010256933 0.06987191 0.010256933 3.9189465" Config_type="scf-Na41" Weight=1.0 energy=-3.88043365 pbc="T T T"
Na 0.9701123834 0.1217650175 0.3409667611 -2.142925739 -0.7094783187 0.06820955873
Na 2.44282198 1.515445471 2.207222939 -0.2892549932 1.599331737 -0.06677591801
Na 3.410795689 0.3222643733 4.062973499 2.481917381 -0.8197917938 0.01849848963
Na 6.535649776 2.724590778 2.395649433 -0.04973680899 -0.0700616315 -0.01993213035
1
Lattice="3.805140495300293 -0.0 -0.0 -1.226288914680481 3.5786893367767334 -0.0 -1.2143328189849854 -1.828587532043457 3.097031354904175" Properties=species:S:1:pos:R:3:forces:R:3 virial="-0.3510121 0.013320081 0.020250501 0.013320081 -0.31509414 -0.028415298 0.020250501 -0.028415298 -0.36031568" Config_type="scf-Na11" Weight=1.0 energy=-1.43495374 pbc="T T T"
Na 3.346803665 0.5814704299 0.3794673085 0.001274749986 0.0009068700019 0.0003603099904
2
Lattice="4.434304714202881 0.0 -0.0 -0.04787757992744446 4.344293594360352 0.0 0.12583030760288239 -0.06674616038799286 4.299522399902344" Properties=species:S:1:pos:R:3:forces:R:3 virial="-0.1414739 -0.73653156 0.7395386 -0.73653156 -0.83610845 -0.4854767 0.7395386 -0.4854767 4.1495595" Config_type="scf-Na21" Weight=1.0 energy=-1.50880285 pbc="T T T"
Na 3.954569578 0.7230750918 4.067389488 1.216723323 -0.8359359503 0.6514824033
Na 2.953091383 1.382272363 2.138837814 -1.216723323 0.8359359503 -0.6514824033
2
Lattice="4.425580024719238 0.0 -0.0 0.11263155192136765 4.287843227386475 -0.0 0.1197706088423729 0.04705965891480446 4.168665885925293" Properties=species:S:1:pos:R:3:forces:R:3 virial="3.2650194 -2.7923555 3.6277745 -2.7923555 0.95839864 -2.5406818 3.6277745 -2.5406818 3.112645" Config_type="scf-Na21" Weight=1.0 energy=-0.39583998 pbc="T T T"
Na 0.3854439557 3.457517862 0.6283555031 -3.657742023 2.683138609 -3.366001129
Na 1.536815405 2.641161919 1.723751783 3.657742023 -2.683138609 3.366001129
4
Lattice="8.243246078491211 -0.0 0.0 0.10800255835056305 4.082719326019287 -0.0 0.21043993532657623 -0.0290048997849226 4.27224063873291" Properties=species:S:1:pos:R:3:forces:R:3 virial="3.3780525 0.84430814 -1.7156305 0.84430814 4.914402 -1.2472006 -1.7156305 -1.2472006 -0.16250004" Config_type="scf-Na41" Weight=1.0 energy=-3.59730162 pbc="T T T"
Na 0.6674234867 3.741338015 0.6186062694 -0.1804709285 0.9908598065 -0.9337650537
Na 2.689587831 2.13369894 1.246880054 -0.2027865052 -0.8703991771 1.473736286
Na 3.602781773 3.996510267 0.1943501234 1.451303005 0.5113252401 -1.264350653
Na 7.259663105 2.386358261 1.796777725 -1.068045616 -0.6317858696 0.7243793607
4
Lattice="6.067824840545654 0.0 0.0 0.0 4.290599822998047 0.0 0.0 0.0 25.00001335144043" Properties=species:S:1:pos:R:3:forces:R:3 virial="-0.7570402 -3.656145e-08 -8.124767e-09 -3.656145e-08 -1.2109275 2.0311917e-07 -8.124767e-09 2.0311917e-07 -0.80170643" Config_type="scf-Na41" Weight=1.0 energy=-4.8933282 pbc="T T T"
Na 3.03391242 0 0 -1.389999966e-06 3.30000006e-07 0.1308667213
Na 0 0 3.03391242 8.100000173e-07 2.499999994e-07 -0.1308670342
Na 0 2.145299911 0 -9.000000034e-08 3.999999976e-08 0.1308661401
Na 3.03391242 2.145299911 3.03391242 6.700000199e-07 -6.299999882e-07 -0.1308658272
10
Lattice="8.581199645996094 0.0 0.0 0.0 8.581199645996094 0.0 0.0 0.0 8.581199645996094" Properties=species:S:1:pos:R:3:forces:R:3 virial="-3.576134 0.6652074 -0.14704058 0.6652074 -3.5402877 0.28280544 -0.14704058 0.28280544 -3.0679414" Config_type="scf-Na101" Weight=1.0 energy=-11.33216847 pbc="T T T"
Na 6.570949078 3.33176899 7.916318893 0.08970315754 0.0773422271 -0.2313162684
Na 0.5282339454 2.435418844 1.797062993 0.03694989905 -0.09806735069 0.1281258464
Na 6.763950825 6.680703163 4.797657967 0.02305866033 0.1653126478 0.2463689297
Na 0.8480150104 7.630177021 8.340359688 -0.04941561818 0.01166183036 -0.06587632746
Na 5.29659605 2.12616396 4.676374912 0.07995548099 0.07496760786 -0.08464234322
Na 2.21904707 0.6119190454 5.29326582 -0.09839390963 -0.03845348954 -0.03492959961
Na 1.079543948 5.803007126 2.694210052 0.07669507712 0.07790975273 0.1229456812
Na 6.34194088 0.5863630176 1.171805978 -0.1582454443 -0.1941321343 0.1019978598
Na 2.856935024 4.146457195 8.510044098 0.1007140875 -0.003965110052 -0.1069511026
Na 6.110188961 5.263422012 1.999498963 -0.1010213792 -0.07257600874 -0.0757226795
7
Lattice="8.581199645996094 0.0 0.0 0.0 8.581199645996094 0.0 0.0 0.0 8.581199645996094" Properties=species:S:1:pos:R:3:forces:R:3 virial="0.87973917 0.5918274 1.6992384 0.5918274 -1.4230028 -0.36049962 1.6992384 -0.36049962 0.6119696" Config_type="scf-Na71" Weight=1.0 energy=-7.07685054 pbc="T T T"
Na 8.166884422 3.61384511 5.191089153 0.6383411288 0.01329480018 0.443195343
Na 8.454017639 7.849082947 7.846770763 -0.1360687912 0.3394881785 -0.09591051936
Na 4.425596237 2.28065896 6.561872959 -0.3442434072 -0.03013231978 0.1431518942
Na 6.217617989 3.782676935 1.640650034 -0.4105710089 -0.0404079482 -0.3178837597
Na 3.095057011 8.326284409 3.556930065 -0.3729496896 -0.06911280751 -0.1999575645
Na 6.752340794 7.678756237 3.960905075 0.2220388651 0.04517626017 -0.1263421178
Na 1.503885984 5.084095955 1.275981903 0.403452903 -0.2583061457 0.1537467241
3
Lattice="8.581199645996094 0.0 0.0 0.0 8.581199645996094 0.0 0.0 0.0 8.581199645996094" Properties=species:S:1:pos:R:3:forces:R:3 virial="-2.5003421 0.12880233 -0.0023359233 0.12880233 -2.2209084 -0.18784104 -0.0023359233 -0.18784104 -0.9786543" Config_type="scf-Na31" Weight=1.0 energy=-2.13546448 pbc="T T T"
Na 0.5737829804 5.839836121 2.738049984 -0.0254215207 0.09806401283 0.1859965324
Na 0.7114570141 1.430729985 4.940219879 -0.005821019877 -0.08174326271 -0.26836887
Na 5.150660038 7.746533871 3.048231125 0.03124254011 -0.01632075012 0.08237235248
12
Lattice="12.406087875366211 -0.0 -0.0 -0.19871540367603302 8.72496223449707 0.0 -0.03668535128235817 -0.1763923615217209 4.136821746826172" Properties=species:S:1:pos:R:3:forces:R:3 virial="3.3105257 0.5238653 -0.15667234 0.5238653 1.3957217 -0.36813208 -0.15667234 -0.36813208 1.9506266" Config_type="scf-Na121" Weight=1.0 energy=-15.37303755 pbc="T T T"
Na 11.96030903 0.03135671839 3.686481714 0.1807405353 0.462107569 0.4513747692
Na 2.616226196 2.248274803 1.705668926 -0.6447753906 -0.2068946958 0.3562310338
Na 2.926941395 8.125068665 3.965739727 0.7327954769 0.2198527306 -0.02676944993
Na 6.154860497 1.649582148 2.17105484 -0.6888493896 -0.1698072702 -0.06876324862
Na 7.619019985 0.05299589038 3.980630159 0.08024317026 -0.6674473882 0.5017386079
Na 9.453471184 1.649850011 2.446528435 0.5079312325 0.5075321794 -0.3071695566
Na 12.07999897 4.364596844 0.03886080161 -0.01867130958 -0.01270364039 -0.04344465956
Na 1.179629803 7.206650257 1.814250946 -0.2454514354 -0.6249123812 -0.08787568659
Na 4.491291523 3.651165247 0.2147435993 -0.1636099368 0.5080645084 -0.2576163709
Na 5.839791775 6.199393749 2.821078062 -0.05625616014 -0.02060689963 -0.2383346707
Na 7.485693932 3.641864777 0.3761265576 0.5757647157 0.6052128077 0.01384859998
Na 9.849267006 7.201677799 2.11212492 -0.2598614991 -0.6003975272 -0.2932193577
2
Lattice="4.161574363708496 -0.0 0.0 0.11623737961053848 4.182803630828857 0.0 -0.10331212729215622 0.18802782893180847 4.210293292999268" Properties=species:S:1:pos:R:3:forces:R:3 virial="0.47569162 -1.5389754 1.4438931 -1.5389754 2.5436733 -1.852497 1.4438931 -1.852497 1.0705563" Config_type="scf-Na21" Weight=1.0 energy=-1.36165564 pbc="T T T"
Na 0.8955272436 3.830448151 0.009152670391 -1.576319814 1.999620795 -1.858679295
Na 1.824394941 2.46403265 1.125868082 1.576319814 -1.999620795 1.858679295
2
Lattice="4.222742557525635 -0.0 -0.0 -0.03688379004597664 4.090590000152588 0.0 -0.14142678678035736 -0.03627572953701019 4.1069488525390625" Properties=species:S:1:pos:R:3:forces:R:3 virial="0.2846509 0.19048187 -0.2810894 0.19048187 0.16762097 -0.2127298 -0.2810894 -0.2127298 -0.053149" Config_type="scf-Na21" Weight=1.0 energy=-2.74712225 pbc="T T T"
Na 3.6237607 0.1419605464 3.269633055 -0.2886588275 -0.2936559618 0.3837977052
Na 1.221529722 1.875529289 1.771831036 0.2886588275 0.2936559618 -0.3837977052
2
Lattice="4.459719657897949 0.0 0.0 -0.12253204733133316 4.490428447723389 -0.0 -0.03173442184925079 -0.0496772900223732 4.451879024505615" Properties=species:S:1:pos:R:3:forces:R:3 virial="-1.220815 0.14242412 0.13693474 0.14242412 0.7287766 0.43282065 0.13693474 0.43282065 0.98729986" Config_type="scf-Na21" Weight=1.0 energy=-2.23313022 pbc="T T T"
Na 3.539343834 3.860127449 4.21528244 0.2379444093 0.5943328142 0.4161690474
Na 3.190011263 2.075158119 2.248030663 -0.2379444093 -0.5943328142 -0.4161690474
4
Lattice="8.395463943481445 -0.0 -0.0 0.11306182295084 4.104337692260742 -0.0 -0.15026333928108215 0.160342276096344 4.093196392059326" Properties=species:S:1:pos:R:3:forces:R:3 virial="7.2390804 -5.2723203 3.2315876 -5.2723203 5.7649426 -4.4313974 3.2315876 -4.4313974 2.1737027" Config_type="scf-Na41" Weight=1.0 energy=-1.90632576 pbc="T T T"
Na 7.434301853 0.3449524939 0.1479769945 1.002774 0.2943811119 -0.5734266043
Na 1.864661932 2.968069077 2.257576942 -0.08212085068 -0.1275191009 0.08277607709
Na 4.843748569 3.54067874 0.7069566846 -6.493313789 5.68492651 -4.40891552
Na 5.880449295 2.539694548 1.459702253 5.572660446 -5.851788521 4.899565697
2
Lattice="4.291219234466553 -0.0 0.0 -0.08597171306610107 4.326302528381348 0.0 0.0846223309636116 0.039818599820137024 4.119866847991943" Properties=species:S:1:pos:R:3:forces:R:3 virial="-0.91032887 0.45613477 0.68542445 0.45613477 4.617692 0.937826 0.68542445 0.937826 0.104289174" Config_type="scf-Na21" Weight=1.0 energy=-1.45051992 pbc="T T T"
Na 3.517999172 3.968901396 3.642700434 0.8311056495 1.179546118 1.235945702
Na 2.979489565 2.077841759 2.740381241 -0.8311056495 -1.179546118 -1.235945702
8
Lattice="6.067824840545654 0.0 0.0 0.0 4.290599822998047 0.0 0.0 0.0 25.000038146972656" Properties=species:S:1:pos:R:3:forces:R:3 virial="-2.1499608 -2.989917e-06 -0.0 -2.989917e-06 -2.423414 3.3311576e-07 -0.0 3.3311576e-07 -1.2880249" Config_type="scf-Na81" Weight=1.0 energy=-10.73985206 pbc="T T T"
Na 3.03391242 0 0 -2.510000058e-06 1.409999982e-06 0.07549063116
Na 0 0 3.033912182 7.599999776e-07 -2.25000008e-06 -0.01560273021
Na 3.03391242 0 6.067824841 -1.41999999e-06 3.240000069e-06 0.01739428006
Na 0 0 9.101737022 2.230000064e-06 1.259999976e-06 -0.07728833705
Na 0 2.145299911 0 1.440000005e-06 4.129999979e-06 0.07549448311
Na 3.03391242 2.145299911 3.033912182 -2.499999994e-07 -1.030000021e-06 -0.01559733972
Na 0 2.145299911 6.067824841 9.099999829e-07 -4.959999842e-06 0.01739726961
Na 3.03391242 2.145299911 9.101737022 -1.160000011e-06 -1.79999995e-06 -0.07728824019
2
Lattice="4.174448013305664 0.0 0.0 0.01871626079082489 4.080589771270752 -0.0 0.03996387869119644 -0.003884929930791259 4.426341533660889" Properties=species:S:1:pos:R:3:forces:R:3 virial="2.0764527 0.17793868 -0.13495699 0.17793868 1.6605184 -0.2277553 -0.13495699 -0.2277553 -1.2644472" Config_type="scf-Na21" Weight=1.0 energy=-2.14897683 pbc="T T T"
Na 4.012219429 0.01003453974 3.373594046 -0.3337803781 -0.5292099714 0.4038476348
Na 1.764690518 1.744461417 2.908811808 0.3337803781 0.5292099714 -0.4038476348
2
Lattice="4.368658542633057 0.0 0.0 -0.20230214297771454 4.239882469177246 0.0 0.04157004877924919 0.0027953600510954857 4.476521968841553" Properties=species:S:1:pos:R:3:forces:R:3 virial="2.3652449 -3.1964076 2.2135756 -3.1964076 3.4512417 -2.2568212 2.2135756 -2.2568212 0.35280555" Config_type="scf-Na21" Weight=1.0 energy=-0.58634664 pbc="T T T"
Na 0.3044341803 3.874605894 0.8098056316 -2.931297541 3.004271984 -2.182020903
Na 1.427047014 2.649178028 1.600883007 2.931297541 -3.004271984 2.182020903
6
Lattice="12.264184951782227 -0.0 0.0 -0.008222299627959728 4.411523342132568 -0.0 -0.07637160271406174 -0.13813349604606628 4.382122993469238" Properties=species:S:1:pos:R:3:forces:R:3 virial="3.328729 -1.9867529 -1.2266288 -1.9867529 1.708789 2.1087961 -1.2266288 2.1087961 -0.8599756" Config_type="scf-Na61" Weight=1.0 energy=-6.05669818 pbc="T T T"
Na 12.16659737 3.861861467 4.225092411 0.3560454249 0.3280665278 0.5678857565
Na 2.46546483 1.932603717 2.779728889 -0.4572635293 -0.3250980377 -0.5293267965
Na 4.041630268 3.889165163 3.908125401 0.5905638337 0.2233340442 0.4112386405
Na 6.629367352 1.46281898 1.603441477 -3.235363245 2.037698746 1.684186339
Na 8.104436874 0.5541011095 0.8583681583 3.204124689 -2.045586586 -1.711050391
Na 10.98666954 1.926498294 2.606159687 -0.4581071734 -0.2184145898 -0.4229334891
2
Lattice="4.494058609008789 -0.0 -0.0 -0.13180187344551086 4.409133434295654 0.0 -0.005780850071460009 0.182244211435318 4.434020042419434" Properties=species:S:1:pos:R:3:forces:R:3 virial="0.04137413 1.011677 -1.052728 1.011677 0.46712914 -1.0538411 -1.052728 -1.0538411 0.37470344" Config_type="scf-Na21" Weight=1.0 energy=-2.02115576 pbc="T T T"
Na 0.3867925704 1.060700178 4.359331608 -0.9391003847 -0.9701989293 0.9877302051
Na 1.645698786 2.462539434 2.970633984 0.9391003847 0.9701989293 -0.9877302051
6
Lattice="12.576865196228027 -0.0 -0.0 0.09493458271026611 4.149436950683594 -0.0 0.036662839353084564 -0.13344532251358032 4.362738609313965" Properties=species:S:1:pos:R:3:forces:R:3 virial="0.027135214 -0.37191916 -0.8003832 -0.37191916 2.0635302 3.1009798 -0.8003832 3.1009798 2.0596852" Config_type="scf-Na61" Weight=1.0 energy=-6.35582547 pbc="T T T"
Na 11.95388317 0.45096457 4.352309227 1.442204118 -1.996653318 -2.255605459
Na 1.988383532 2.154239178 3.024380684 0.02764428034 0.06426870823 -0.1723451614
Na 4.337967873 0.01036615018 0.3709256351 -0.7962672114 -0.7336791754 -0.8633616567
Na 5.534745216 1.524117112 1.73254323 0.8995491862 0.7325171232 0.91098243
Na 8.559566498 3.24322319 3.664964199 -0.06922735274 0.06165860966 0.007196289953
Na 11.09317493 1.677639842 1.371260285 -1.503903031 1.871888041 2.373133659
8
Lattice="8.461224555969238 -0.0 -0.0 -0.41152632236480713 8.401925086975098 -0.0 -0.08026503026485443 0.1446790099143982 4.320113658905029" Properties=species:S:1:pos:R:3:forces:R:3 virial="2.8869035 0.90997756 1.2541667 0.90997756 3.860633 0.5070143 1.2541667 0.5070143 2.934017" Config_type="scf-Na81" Weight=1.0 energy=-9.17357605 pbc="T T T"
Na 0.2561014295 1.101498842 4.061369896 -0.04901729152 -1.271425724 0.3560200334
Na 1.41826582 2.529748917 1.913900614 1.00997901 -0.2964227796 0.3192307055
Na 3.144687891 7.843774319 4.18320179 -0.07478945702 0.4066474438 -0.05159277096
Na 6.809434414 2.574094772 2.627854824 -1.074562669 0.04301087186 -0.4460138083
Na 0.1534483433 4.08821106 0.02781141922 -0.627785027 0.4237701893 -0.4214583933
Na 1.118581414 5.776347637 1.869354367 -0.02347796969 1.007439375 0.5136570334
Na 3.626131535 4.508123398 0.7643511295 0.03574087843 -0.7421361804 -0.6694725156
Na 5.157233715 6.060045242 2.239369392 0.8039124608 0.4291168451 0.3996297419
8
Lattice="9.268754959106445 1.2385895252227783 0.0 0.0 3.715768575668335 0.0 0.0 -0.0 24.999977111816406" Properties=species:S:1:pos:R:3:forces:R:3 virial="-2.698883 0.30690393 -0.03507061 0.30690393 -2.0562503 0.14464201 -0.03507061 0.14464201 -1.162967" Config_type="scf-Na81" Weight=1.0 energy=-10.26782713 pbc="T T T"
Na 4.63437748 2.47717905 0 0.01944945008 -0.03261547163 0.1260799766
Na 8.606701851 2.47717905 4.586844444 0.007479529828 -0.0002836500062 0.02173819952
Na 2.648215771 2.47717905 5.733555317 -0.01059294958 -0.03348128125 0.005957310088
Na 0 0 8.026977539 -0.01928064972 0.03247578815 -0.1292017251
Na 7.944647312 3.715768576 1.14671123 -0.02590686083 0.0002459099924 0.03227018937
Na 1.986161828 3.715768576 2.293422222 0.01040568016 0.0335524492 -0.003420630004
Na 5.296431541 1.238589525 3.440133333 -0.007378390059 0.0005489100004 -0.02352374978
Na 5.958485603 3.715768576 6.880266666 0.02582418919 -0.0004426699888 -0.02989956923
54
Lattice="12.231725692749023 0.0 -0.0 0.08421099185943604 12.427786827087402 -0.0 -0.05641994997859001 -0.24881988763809204 12.343938827514648" Properties=species:S:1:pos:R:3:forces:R:3 virial="30.36177 -0.5277413 -3.4226494 -0.5277413 43.58168 2.4925911 -3.4226494 2.4925911 34.55283" Config_type="scf-Na541" Weight=1.0 energy=-53.28487472 pbc="T T T"
Na 12.10756397 0.5711134672 0.5316813588 0.3494545817 -1.214937329 -1.612951159
Na 1.601375699 1.75328958 2.217244387 1.024469376 0.02842055075 0.6859790087
Na 4.564899921 11.84418297 11.87902546 -0.9042264223 0.08549913764 0.6888522506
Na 5.422661781 2.49472928 2.642315388 3.165369034 -5.068684578 -4.915812969
Na 8.646596909 0.7429983616 0.1716118604 -0.6416027546 -0.274163425 0.3154927194
Na 10.84063053 1.280757427 2.426805973 -1.225842476 0.9533290267 0.6685054302
Na 11.86621761 3.596416473 0.7209794521 -0.2009458244 0.8125118613 -0.3908860087
Na 2.148778439 5.594793797 2.30753231 -0.1516281664 0.4516696036 -0.1584944427
Na 3.939865112 3.496478081 0.8375393152 -0.6538306475 0.3174236119 -1.235674858
Na 5.219016552 6.412844181 1.649249673 0.2245386541 -0.3171596825 -0.4811111391
Na 7.856809139 3.438358307 11.72761536 -0.6861312985 1.252831697 0.8453691602
Na 10.66818619 7.093013287 1.785511613 -1.075680017 -1.58987689 0.5743858814
Na 11.61667919 8.770805359 0.4902680516 1.039611816 0.7773174644 -1.384247422
Na 2.986140728 9.992180824 1.716244102 -0.6440294385 0.09282182157 0.1797352433
Na 4.185098171 8.557679176 11.49776173 -2.081637383 -0.9951623082 0.9792758822
Na 5.899167061 9.771560669 2.124012232 -0.2251619846 1.320441365 -0.8284100294
Na 7.188478947 8.086447716 12.32214451 1.359311104 -1.091916323 0.1461119503
Na 9.763124466 10.74538517 1.188966513 -0.3339212537 -0.22982499 0.3581710756
Na 11.39279366 12.28795242 4.461279392 0.4015094042 -0.2173476666 0.1484753042
Na 2.738738298 2.500286341 6.169239521 -0.9811671972 -0.645172894 -0.878729701
Na 4.843241692 0.229225412 3.64960742 -0.649972856 -1.031600237 0.4613902271
Na 6.102656841 2.853323936 6.121331215 -0.359321177 -1.240098596 0.7647847533
Na 7.753700256 0.7209210992 4.178124905 0.3638758063 -0.7675378919 -0.04871917143
Na 9.743098259 1.714513421 6.853466988 0.5678246021 0.6582895517 -1.066423893
Na 0.6030964255 4.307999611 4.559022903 -0.5462204218 -0.1046970487 0.1384542435
Na 2.81614542 6.482620716 5.891592979 0.02276890911 -0.3037811816 0.1273624003
Na 4.897914886 3.694070339 3.69765234 -2.895929813 5.849060059 4.791758537
Na 6.636248589 5.614012241 5.955931664 -0.8663428426 1.375329733 -0.09476017952
Na 7.923640728 3.526002407 4.705610275 1.653554559 0.4460373819 -1.330302835
Na 9.513506889 6.686182499 6.664814472 1.498938203 -1.081105709 -2.733832836
Na 12.2376833 8.744874954 3.398424625 0.2594062686 0.2418708354 0.6470373273
Na 1.966509461 9.514513016 5.83099699 0.2610186338 0.346346885 0.1483678222
Na 5.060070038 7.962829113 3.938583374 -1.366940141 -0.4487937093 1.047142029
Na 5.898715973 10.5835228 7.108040333 0.3136781156 -0.4636654556 -0.2310355157
Na 7.383030415 8.813002586 3.794234753 2.035245419 -0.06397154927 0.8833007216
Na 11.12834263 10.51280499 6.538221359 -0.5565441847 -1.133177757 -0.2588047385
Na 11.7017107 0.1104531512 8.000216484 1.078017235 0.7579706311 0.6110479832
Na 1.802541852 1.651243687 10.60560608 0.04480712116 0.1158755422 -0.2378983647
Na 4.679179668 0.6679603457 7.927185535 -0.1860955656 -0.3566003442 0.3109388947
Na 5.387038231 1.547724366 11.0479517 0.4721257687 0.831705153 -0.5459755659
Na 8.288977623 0.7399163842 8.569590569 -1.513242245 -1.133722186 -0.2271427661
Na 9.242851257 2.036168098 10.34388828 1.66033721 0.317148298 -0.2083661258
Na 0.1163946912 4.94527483 8.675904274 0.4078623056 -0.7393476963 -0.4983575046
Na 2.894117355 6.25180769 10.40775776 -2.396121025 -0.5002530217 0.6524345875
Na 4.140073299 3.588179111 7.828041077 0.06302700937 1.066946149 1.269428849
Na 5.064775467 5.762470245 10.07568836 2.189209461 -0.9696386456 0.01379329991
Na 8.352258682 4.331557274 7.687663555 0.2325981557 -0.3709460199 1.203992605
Na 10.63300896 6.504322052 10.17459488 -1.218766451 -1.670353413 2.09445262
Na 11.50929642 8.014749527 9.012113571 1.670042753 1.340602279 -1.30599761
Na 1.039857268 10.00130272 10.06682682 0.6394432783 0.3407176435 0.2462251335
Na 4.102092743 8.038196564 8.749059677 0.110786967 0.7851672173 -1.39092803
Na 5.845990658 9.754622459 11.15788651 2.019593716 1.617898583 -1.529666305
Na 8.851002693 7.767910004 8.217063904 -2.13152504 1.795463562 1.851952314
Na 10.15519238 10.64486885 9.527164459 -0.635599196 0.04484083131 0.7403111458
2
Lattice="4.215574264526367 -0.0 -0.0 -0.2040126770734787 4.316856384277344 0.0 -0.11332663893699646 0.016699189320206642 4.099482536315918" Properties=species:S:1:pos:R:3:forces:R:3 virial="3.6690981 1.2378074 1.0147532 1.2378074 0.09389647 1.0442775 1.0147532 1.0442775 -0.16716863" Config_type="scf-Na21" Weight=1.0 energy=-1.50108343 pbc="T T T"
Na 4.00528717 0.3217272162 0.8275806308 -1.450001717 -1.421066165 -1.184558272
Na 1.464977026 1.298225641 1.648730874 1.450001717 1.421066165 1.184558272
1
Lattice="3.5959436893463135 -0.0 -0.0 -1.3009072542190552 3.419677734375 0.0 -1.0574638843536377 -1.7078185081481934 3.0100557804107666" Properties=species:S:1:pos:R:3:forces:R:3 virial="-0.12513858 -0.023449183 -0.015884709 -0.023449183 -0.1644869 0.002214464 -0.015884709 0.002214464 -0.15903948" Config_type="scf-Na11" Weight=1.0 energy=-1.46755068 pbc="T T T"
Na 2.224094391 2.67552352 0.02578420006 -0.0008328700205 -0.0003405699972 0.0009052699897
2
Lattice="4.318426609039307 -0.0 0.0 -0.18211740255355835 4.187335968017578 -0.0 0.1003112867474556 0.21690553426742554 4.4690022468566895" Properties=species:S:1:pos:R:3:forces:R:3 virial="1.4237072 -0.04448244 -0.16884623 -0.04448244 1.5585982 0.12558238 -0.16884623 0.12558238 -1.3175241" Config_type="scf-Na21" Weight=1.0 energy=-2.19780718 pbc="T T T"
Na 0.3070680201 0.3155170977 3.510811806 -0.5079269409 0.2324932069 0.2688030005
Na 2.049201727 2.58618784 3.156930447 0.5079269409 -0.2324932069 -0.2688030005
9
Lattice="8.581199645996094 0.0 0.0 0.0 8.581199645996094 0.0 0.0 0.0 8.581199645996094" Properties=species:S:1:pos:R:3:forces:R:3 virial="-3.926798 -0.18758234 -0.49017268 -0.18758234 -3.7470553 -0.0131304925 -0.49017268 -0.0131304925 -3.4167454" Config_type="scf-Na91" Weight=1.0 energy=-10.13347401 pbc="T T T"
Na 0.1153520122 0.1569409668 0.4221220016 0.07170303166 -0.03498430923 -0.008976460434
Na 4.96948719 0.2516470253 1.833693981 0.0157457795 0.01890381053 0.06684821099
Na 7.781668186 7.417304039 5.127613068 -0.04683459923 0.01676670089 -0.08025401831
Na 0.7389829755 2.437731981 3.585566044 0.03983138129 0.01463516988 0.003449789947
Na 3.42392993 6.098529816 5.852322102 -0.09561193734 0.1385591626 0.07018645108
Na 7.500331879 4.287374973 8.105685234 0.05108388141 0.03517485037 -0.06305199116
Na 4.888175964 1.809098959 5.786644936 -0.02073667943 -0.04104150087 -0.009194379672
Na 3.260332108 3.286006927 0.4121409655 -0.05600408837 -0.06600798666 0.08380507678
Na 5.937139988 4.28956604 3.199012041 0.04082322866 -0.08200591058 -0.06281267852
4
Lattice="8.160844802856445 -0.0 0.0 -0.050640009343624115 4.2075605392456055 -0.0 -0.08885166049003601 -0.16378498077392578 4.137668132781982" Properties=species:S:1:pos:R:3:forces:R:3 virial="5.847302 -2.0771422 -0.2812613 -2.0771422 4.7504663 3.2836325 -0.2812613 3.2836325 0.35817108" Config_type="scf-Na41" Weight=1.0 energy=-2.44192253 pbc="T T T"
Na 0.05623549968 3.522595406 3.234720469 -1.59876442 4.190081596 3.067394018
Na 1.093260765 2.239438772 2.44973588 3.796988964 -3.252387524 -2.079797029
Na 4.416331291 4.041864872 0.8274505138 -0.2904627025 0.1444060355 -0.205161944
Na 6.631845951 2.288624048 2.188282728 -1.907761812 -1.082100153 -0.7824350595
4
Lattice="8.179628372192383 0.0 0.0 0.015675460919737816 4.078261375427246 -0.0 0.055667031556367874 0.01865994930267334 4.437298774719238" Properties=species:S:1:pos:R:3:forces:R:3 virial="4.80414 0.7224862 -2.1825478 0.7224862 5.751064 -0.5591417 -2.1825478 -0.5591417 -0.67371225" Config_type="scf-Na41" Weight=1.0 energy=-3.10503403 pbc="T T T"
Na 0.3076332211 3.62938714 0.8120991588 0.08907126635 1.031287193 -1.298275948
Na 2.107878208 1.634275556 1.397734761 -0.1772384942 0.4096089303 1.304053307
Na 3.239861965 3.865779161 0.4975781143 1.652807236 -0.4667314887 -1.049928546
Na 6.992202282 2.359766483 1.861145496 -1.564640045 -0.9741646647 1.044151187
16
Lattice="8.164029121398926 -0.0 -0.0 -0.2873045802116394 8.156558990478516 0.0 0.42893555760383606 0.09532245248556137 8.20801067352295" Properties=species:S:1:pos:R:3:forces:R:3 virial="5.7576914 0.20415738 0.9413617 0.20415738 7.963232 -0.41761047 0.9413617 -0.41761047 7.7335744" Config_type="scf-Na161" Weight=1.0 energy=-18.91421126 pbc="T T T"
Na 8.49525547 0.2766855061 7.929077625 -0.2489088923 -0.8558502793 0.3615910113