32
Lattice="7.70899582 0.0 0.0 -0.0 7.70899582 0.0 0.0 0.0 7.70899582" Properties=species:S:1:pos:R:3:forces:R:3 virial="7.068505831704222 -2.594338273530066 -2.054911181239083 -2.594338273530066 -15.82830467930435 -6.882470100723071 -2.054911181239083 -6.882470100723071 -12.026449145954347" Config_type=aimd1 Weight=1.0 energy=-144.52235825 pbc="T T T"
Na       4.46552996       7.35396002       0.41825003      -0.05179034      -0.14404658       0.52487782
Na       1.81965003       2.62473986       7.12581013       0.60407867       2.49463856      -0.39398881
Na       2.73272994       3.76572990       3.23964999       1.64473472      -0.07087353       2.11409733
Na       0.51828997       7.55955979       3.67914007       0.20308491       0.00262449       0.01453269
P        0.65043003       0.04677002       0.44546001      -2.78043999      -1.26138250      -1.42143381
P        0.20529002       4.24020002       4.13748983       1.63312267       1.84453045      -2.85787908
P        4.44989010       7.50097990       4.41224006       3.48699387      -2.64173660      -3.29142677
P        4.46684981       3.75650000       0.32841001      -0.23380354       4.63755499      -1.45504917
F        1.29304004       2.91754008       4.68335010      -0.36220751       1.69368726       0.85264971
F        1.53264997       1.19299994       2.08076004      -2.65192287      -1.15085230      -1.96568138
F        7.09033010       5.60840986       3.53652003      -0.20847603      -2.70144071      -0.45072821
F        2.98236988       3.61469009       1.40312003       0.89469790      -3.25431428      -4.19832479
F        4.97201013       4.41939023       1.66849998       2.54274138      -1.02060348       0.64357001
F        0.35986996       6.59165003       6.84375000       1.93137070       3.38594572       2.28913166
F        0.83066997       6.46611975       1.44021996       1.09901314       1.93122987      -0.84099498
F        0.76507998       3.76717996       2.60716011      -2.24923855       0.32346523       0.79951529
F        0.26660999       1.50255999       7.41006995      -5.84457837       0.80287010       0.66233468
F        4.33056024       5.73036001       3.71816995       0.72599661       2.93158871       1.84400059
F        3.23651004       7.41540002       2.49174996       1.90830042       0.96269168       2.20529246
F        0.09902999       5.03831004       5.51149984       0.05291273      -3.30570586      -0.22236699
F        3.62897995       5.23499011       0.20941996       1.08295308       1.61185926      -1.31101640
F        5.91565991       0.31297004       3.17004994      -2.48585939      -0.72386119       1.90091262
F        5.10313984       2.31564998       0.42952998      -1.87710189      -1.23560451       0.91896366
F        1.70106995       5.46229980       3.80865004      -1.29101391      -0.98479378       1.42195200
F        6.81529001       3.06032988       4.13831993      -0.19699648       2.01196215       0.38982908
F        4.40660000       1.38571998       4.92857981       0.57028324      -1.37817492      -1.46147672
F        3.26002001       7.28972003       5.37857008      -1.22348879      -0.95622336       0.21659375
F        5.87647007       4.06902978       7.14958999      -1.72065181       1.06476802       1.00939395
F        5.65840008       6.89372017       5.45594975      -2.10404261       1.68912178      -1.23062795
F        6.76320980       7.62747003       0.59895004      -0.53041983       0.48564859       1.66627657
F        1.91675994       0.67464999       7.47349024       6.90288101      -4.94776861       0.36044559
F        3.65897989       3.62567996       6.51527023       0.52886684      -2.09680464       1.26662561
32
Lattice="8.58119965 0.0 0.0 0.0 8.58119965 0.0 0.0 0.0 8.58119965" Properties=species:S:1:pos:R:3:forces:R:3 virial="-23.75197773486907 -2.132161629411297 15.031586143420421 -2.132161629411297 -10.24423272726472 -0.8630064063726653 15.031586143420421 -0.8630064063726653 -1.5410888433558143" Config_type=aimd1 Weight=1.0 energy=-138.2676495 pbc="T T T"
Na       7.11990974       1.32231001       2.93698003       1.22595919       0.58712422       2.01918214
Na       1.47300008       6.00034997       2.86309006       0.04652654       0.01237355       0.10068653
Na       7.23978995       7.51339009       6.96017980      -0.86836157       0.44615518      -0.14899705
Na       1.71905997       3.13592004       6.56493000      -0.35340135      -2.64437329      -0.79910797
P        6.68448019       2.63559010       8.04594998      -3.19430213       1.07469214      -4.42650635
P        1.88531994       2.09907007       3.42545006      -1.99292545      -6.36768711       2.80679998
P        5.83293007       6.46019981       3.35605003      -3.68109595      -4.85560950       0.40354624
P        1.79597000       6.16993996       8.06025029       2.28978972       0.53727772       3.02926777
F        0.97272995       1.13464998       4.80099010       1.44961055       2.32099021      -1.15235470
F        6.31876997       1.48254005       1.24188992      -0.07011816       2.17672562      -4.58996664
F        2.52783992       2.84916998       2.31609007      -0.36004251       1.75291007      -4.49946360
F        2.13612009       4.83868980       7.20990996      -0.35427992       2.05829086      -0.53323848
F        1.44605992       7.59497027       0.34777002       1.43732266      -1.25210581      -0.94832553
F        6.95430992       2.77322010       6.39179992      -4.32359379       8.95547488      -3.97114442
F        7.47865013       1.42874005       7.26976014       2.88938701      -9.51340841       7.65079462
F        2.55226991       3.18839999       4.37306979      -1.41107137       0.90969526       2.32420569
F        5.84681986       4.18283987       7.98560004       0.31504751      -2.70380925       1.06897457
F        5.80735020       6.42881012       1.69974009       1.48853242       0.23025105       1.35763034
F        5.19897988       6.76727006       4.92580983       4.05428513      -0.04052926       1.37740146
F        1.04919007       0.85011002       2.48711990       0.95733322       2.27696165       0.47675878
F        2.84841990       7.33334013       6.18826005      -1.71531010      -1.47085000       2.50470551
F        7.58941986       5.61181024       3.44712994      -0.58700125       3.80598461       0.08179580
F        1.06617999       5.24158004       0.68331998       0.18064624       0.56834951      -0.40325771
F        8.32588004       3.14367006       3.40493009       2.91529675      -1.01226475      -0.10216538
F        3.20243000       1.15662000       3.61121990      -1.36439532      -0.09500680       0.09492929
F        4.20204021       6.29432007       3.26387001      -1.88695956       1.16163919      -2.61226866
F        6.03592015       8.13523007       3.34441993       0.73646084      -1.87310881      -0.30561042
F        3.21495005       5.82173015       0.25227998      -0.56236550       1.91687667      -0.67779151
F        5.65764002       4.71205000       3.58037993      -0.00958016       1.44643272      -0.12387654
F        4.47091005       1.78217006       7.64063976       2.35854825       0.78326377       0.43159993
F        7.94435982       3.47143010       8.42082981       0.94360513      -0.83969735       1.50802734
F        0.35322003       6.37056017       7.44947002      -0.55354709      -0.35301856      -1.94223103
32
Lattice="8.58119965 0.0 0.0 0.0 8.58119965 0.0 0.0 0.0 8.58119965" Properties=species:S:1:pos:R:3:forces:R:3 virial="23.19405741047539 10.084974779175884 17.663238142658958 10.084974779175884 -19.09402262983578 1.6949209138299146 17.663238142658958 1.6949209138299146 -5.810920676961088" Config_type=aimd1 Weight=1.0 energy=-130.66946115 pbc="T T T"
Na       6.40538980       6.58136986       8.16246989      -4.68804191       0.76449219       1.62078205
Na       1.18775002       1.66107998       8.49005984       0.06085176       0.01996084      -0.31042624
Na       7.39814999       2.96863006       3.91275004      -4.17747815       4.28100118      -4.91457067
Na       7.82283021       8.45252988       3.94021014      13.88847853       2.19145446      11.39669996
P        5.92432019       2.37024001       7.69774009       0.18526424      -2.21384643       1.24230048
P        1.60538997       2.52323010       4.30755997       2.07889550       2.17925726      -4.54057554
P        5.35254002       7.31695982       3.44846011      -2.71200531       0.76094489       4.07018771
P        0.96432999       6.29292013       8.10449985       0.57187213      -3.23337415      -2.88174596
F        2.56587009       1.19337997       4.65071013      -1.94259047       1.57793126      -0.54111329
F        4.62735991       0.40404999       7.90053984      -0.53145610       1.50054874      -0.24700995
F        0.46513998       3.85674999       3.92562012       1.94766112      -0.31908885       0.81279677
F        0.31128001       7.42679978       0.74009003       1.92708525      -1.09893937      -1.52621277
F        1.48890996       5.44867991       6.69122981      -1.02966906       0.78629844       1.92204960
F        7.59327986       3.15458011       7.89308981      -3.09045115      -1.01638268      -0.89927541
F        6.41057018       2.11908006       5.25584980      -4.70365536      -0.04504928       3.95377420
F        1.93051008       3.14885997       5.62865015      -0.22087402       0.58403842       2.87463501
F        5.52769998       2.69106009       0.61829002       0.90585261      -0.63521939      -0.37360878
F        6.67566017       8.25133988       3.01124001     -14.08364579      -2.93508772     -11.40827571
F        4.36966992       6.24245976       3.95825005      -3.35011705       0.02843375      -1.00722454
F        1.34317004       1.97081992       2.81399015      -2.28539727      -2.50375655      -0.60479509
F        1.56271995       7.72596983       6.39440011      -1.04590923      -0.00034523       2.62953769
F        5.58036992       5.31493994       2.08252998       0.66335964       2.44093846       0.07857305
F        0.43935004       4.87071990       0.17863003       0.81855862       1.02159389       1.05322674
F        8.14995000       1.82738998       4.96222020       8.03327209      -4.32745392       1.88430123
F        2.59907006       3.52119994       3.40581009       1.17817488      -0.68546914       2.03777112
F        5.19350001       8.28423977       5.10363005      -0.29741778      -0.37213428      -3.49000352
F        6.31331018       6.52405981       4.44704007       3.88036091      -0.77266678      -0.62188737
F        8.04026983       6.33709006       7.54526993       2.85708635       0.79448166      -2.88482389
F        4.23323013       8.27023028       2.58519006       2.47833755      -1.90615294       1.03825370
F        4.24956993       3.62900993       7.46910999       2.25696990      -1.31284043      -0.59640627
F        6.80292992       0.81218000       7.96132991       0.35730825       2.63990610      -0.38050497
F        2.39069013       6.05001023       0.13583001       0.06931932       1.80652560       0.61357066
32
Lattice="8.58119965 0.0 0.0 0.0 8.58119965 0.0 0.0 0.0 8.58119965" Properties=species:S:1:pos:R:3:forces:R:3 virial="-2.881023502832069 -5.468532177405078 3.1650966122691084 -5.468532177405078 26.989424154205324 19.538691766032123 3.1650966122691084 19.538691766032123 8.609068807499012" Config_type=aimd1 Weight=1.0 energy=-130.11921335 pbc="T T T"
Na       6.09880018       7.24067021       0.41433996      -0.54913350      -0.12911416      -0.47602335
Na       1.02244994       2.44837999       7.76482010       0.89616413       0.52281659       0.17940681
Na       6.97111989       3.16252991       3.64417007      -0.39825202       0.34061124       0.07360462
Na       8.11419008       8.04930017       3.12894009       0.41204951      -0.02147338      -0.03436982
P        6.38439993       2.64426998       0.27794995       0.90119304       0.61767848      -5.50278457
P        1.98382997       2.37785008       3.21630005       0.77465156       2.83376029      -3.48798356
P        4.52275989       7.11607977       3.52032998      -8.19468175      -4.20413084      -7.16412621
P        0.95480005       6.19183017       8.37329005       4.91310845      -1.87091546      -0.51690596
F        0.32611004       2.21258999       2.84451005      -0.41288297      -2.04177713      -1.35796882
F        5.28558014       2.34345011       1.15121994     -11.25990442       5.98875844       1.80767046
F        4.03435997       2.77320002       3.32607007      -3.11893620      -0.85282129       1.04134465
F        8.16143036       5.42788981       8.17059997      -0.93343540      -1.06124144      -2.81985626
F        2.47425008       6.92323018       0.27239997      -2.61980350      -0.36734490      -1.96108641
F        7.37345982       2.26644989       7.68159010       0.40937319      -0.87672058      -0.77860693
F        4.98591993       1.83285998       7.20364997       1.17326219      -2.17474679       1.26523384
F        2.00617000       1.00834004       4.06454992      -0.32435997       1.56651903       1.61872753
F        7.79010014       3.43745996       0.92394000      -3.32318637      -0.15836220       0.13472150
F        3.68039990       8.45792008       2.73687005       2.24723628      -1.74455020       3.21745475
F        5.12258008       5.76213981       4.02488993       4.95432863     -18.14394547      -8.05350392
F        2.14789006       3.73368005       2.10879995      -0.65441695      -1.93882106       2.09635220
F        1.24241998       6.58461999       6.00877001      -1.09783320       0.55182877       2.61312056
F        5.13614988       7.10759022       4.80700020       2.77756213      18.92257182      14.65758026
F        0.82289002       5.73854014       1.29451001       1.47365747      -1.93330769       1.72654035
F        1.07176995       3.40811989       4.30988976       3.17810235      -0.29691893       1.20249705
F        2.32500002       1.42411006       1.94395004      -0.51235412       0.95941061      -0.60805668
F        4.14833023       6.33217002       2.23295996      -1.36645730      -1.86465839      -5.22117738
F        3.18304996       6.22705985       4.02229978      -2.88284307       3.25775332       1.80683058
F        1.98878003       4.80171015       7.57228999      -2.20390434       1.52965577       2.03707363
F        5.75484991       7.47484017       2.53708007       4.55840479       2.67536930       0.96760324
F        5.26863004       3.85435008       7.72288987       3.50416967       0.78455640       3.38582333
F        6.67693997       1.35222003       1.41000000       8.23902554      -4.86934976      -0.50365654
F        0.01232003       7.37573006       0.33190999      -0.55990385       3.99890962      -1.34547897
32
Lattice="8.58119965 0.0 0.0 0.0 8.58119965 0.0 0.0 0.0 8.58119965" Properties=species:S:1:pos:R:3:forces:R:3 virial="-22.52367216779096 -2.0007359006683734 -1.1943442602240877 -2.0007359006683734 -17.1688260959572 -2.5983048001022793 -1.1943442602240877 -2.5983048001022793 -17.554659585032585" Config_type=aimd1 Weight=1.0 energy=-139.46899105 pbc="T T T"
Na       0.17140002       4.00572013       0.04679002       0.09115654       0.66643368      -0.31490008
Na       8.32067966       0.31690001       3.03675012      -0.63477688      -0.06990431       0.87456312
Na       3.34753989       3.25817991       4.43433998       0.58762363       0.62584724       0.48575063
Na       4.58104992       0.16627997       7.93973018       1.00747297      -0.14290471      -0.15334212
P        0.78080996       0.11224999       8.14377025       1.59268051      -1.94763942      -1.13177984
P        8.19408037       4.17789984       3.96973993       1.11185499      -3.85923489       2.27983961
P        3.60024000       8.35638998       3.61772994       0.75165404      -2.58666018      -1.32296761
P        3.77557991       3.76389000       0.78145999       2.05197496       3.82576441      -0.54084569
F        8.57295037       4.74989987       2.46004012      -0.43127117      -1.20956350       0.75637410
F        1.00976006       6.25447988       8.04835032      -0.36916189       1.39924549       0.20874295
F        7.65447994       3.76371005       5.52606011      -0.19154169      -0.84354123      -1.75605924
F        2.23885987       3.80699988       1.14302000      -1.49706710      -0.66994175      -0.96607761
F        5.26635980       3.65581991       0.26270999       0.39200537       0.14018609      -0.50887834
F        0.58163002       1.66236999       8.21490960      -0.53644438       1.10003250      -0.37609519
F        0.64332996       0.09621996       5.57446005      -0.14234670       0.20165696       1.82733716
F        8.33096981       2.61566996       3.47049998      -1.38576575       0.44266934      -0.61967840
F        0.71979000       8.55035976       1.17586008       0.04634861      -0.39946604      -0.93939486
F        1.74677004       8.42391012       3.63592002       3.67143057      -0.06115856       0.18100938
F        5.36204000       8.05484963       3.49845006      -2.94961058       0.41734057       0.55771558
F        7.84355020       5.56896019       4.36593006      -0.61167562       3.49771870       0.20071918
F        3.49960998       3.28962992       6.94554997      -0.28701140      -0.22736531       1.43229363
F        3.48730995       6.02099994       4.25577019      -0.05738716       2.33843609      -0.00978509
F        4.12782005       4.37409018       2.20500996      -0.64610075      -0.32444742      -0.64056839
F        5.73281004       3.84018990       3.47897005       2.78080420      -0.30845784       1.04199437
F        1.13759007       3.91336986       4.57340004      -0.51500869       1.64587871      -1.00992144
F        3.77387997       1.22980999       2.98522997      -0.65982996      -1.39618608       1.36207016
F        3.39159988       7.49652005       2.14417003       0.44894384       1.73067604       2.13445666
F        3.86966993       2.21352002       1.19787000      -0.63837508       0.93948506      -2.15521348
F        3.75542001       0.44473003       5.15150980      -0.55071110      -1.63062586      -1.43337829
F        6.75373982       8.55292992       8.06544020       1.23338553       0.18209455       0.31688776
F        2.57679009       0.37718002       8.11641982      -3.59414273      -0.77484690      -0.05790281
F        3.66348001       5.37961010       0.14600002      -0.06910712      -2.70152145       0.27703420
32
Lattice="7.70899582 0.0 0.0 -0.0 7.70899582 0.0 0.0 0.0 7.70899582" Properties=species:S:1:pos:R:3:forces:R:3 virial="4.6950362339595895 0.3314734699912091 -1.1042470525166947 0.3314734699912091 5.729573441348324 -5.5204985444021615 -1.1042470525166947 -5.5204985444021615 5.7753556110997035" Config_type=aimd1 Weight=1.0 energy=-157.18446596 pbc="T T T"
Na       0.07996002       3.78589008       0.11881999      -0.33865834       0.18618122      -0.45107488
Na       7.62279984       0.04372997       3.88179994       0.49765036      -0.43785248       0.20026413
Na       3.93040993       3.96298006       4.09570977      -0.00383737      -0.27124178      -1.06466743
Na       3.98312998       0.03519002       7.67437981      -0.50722890       0.07749990      -0.02412971
P        0.00435998       7.60207983       0.07538003       0.36970906       5.98445424      -1.89773012
P        0.01302998       3.76004005       3.87922999      -1.67969324       4.04330169      -1.67998856
P        3.84845999       0.03888001       3.82418992      -0.61725136      -0.45122061      -1.62595102
P        3.83852001       3.84803006       0.03886999       0.52938056       1.41094993      -2.88067383
F        0.04085999       3.88142990       2.18624994       0.48884608      -0.12296772       0.58567413
F        7.67393014       6.10521988       0.03665998      -0.16806664      -4.03991569       0.37916547
F        7.62557986       3.85624007       5.51577996      -0.09437701      -0.72527022      -0.68030875
F        2.19112989       3.86929009       7.68742990       0.69389663       0.69394809       0.60435595
F        5.54954004       3.79832007       7.66554021      -1.99910101       0.14238304      -0.05962336
F        0.03516998       1.69858002       0.16063003      -0.16559569      -2.16352625      -0.70616029
F        0.06593998       0.00551000       6.13822987      -0.60318360       0.20909669      -0.29011125
F        0.04724003       2.22024992       3.84550999      -0.45340604      -2.35687113       0.29784291
F        0.00880999       0.04458999       1.65337000      -0.17884565      -0.84833546       0.81338146
F        2.19905998       7.68932007       3.82041004       0.23546607      -0.29537658      -0.15168079
F        5.52567006       0.10103001       3.74186994      -1.69574629      -0.11937334       0.31896657
F        7.69064995       5.45488020       3.93044994       0.07928137      -0.57681751      -0.17949574
F        3.73348001       3.81830001       6.06817006       0.67560108       0.35761341       1.35433069
F        3.97485993       6.06449988       3.72479012      -0.21613351       1.57309394       0.66260332
F        3.87600994       3.87845994       1.58974002      -0.02313823       0.19893004       1.44488483
F        6.13176010       3.77887991       3.59940007      -1.07435968      -0.21191284       1.40243979
F        1.55320000       3.77329991       3.79954002       2.89277559       0.43954382       0.81497473
F        3.82363009       1.65313009       3.91505007       0.08069393       0.59302852      -1.05335285
F        3.72762989       0.02957001       2.16157005       0.64609391       0.42271430       0.85761124
F        3.75534010       2.25456999       7.68560981       0.47676000      -0.80411051       0.38802691
F        3.73010995       0.10146997       5.41477014       1.06230808      -1.29084189       0.96766769
F        6.09260989       7.66577009       7.65505983       0.07197522       0.32683244       0.52514248
F        1.59976002       7.61532019       7.67395019       1.17044832       0.15495960       0.91814845
F        3.91455006       5.57276007       7.65215015      -0.15226372      -2.09889687       0.20946782
32
Lattice="8.58119965 0.0 0.0 0.0 8.58119965 0.0 0.0 0.0 8.58119965" Properties=species:S:1:pos:R:3:forces:R:3 virial="-25.014503278033207 -2.4515537535126977 4.105505012143641 -2.4515537535126977 0.19986708102441514 -3.620204100678586 4.105505012143641 -3.620204100678586 -6.834248546660992" Config_type=aimd1 Weight=1.0 energy=-131.77055971 pbc="T T T"
Na       0.16747001       4.20439009       0.76007006      -0.07186853       0.32964454      -0.34862164
Na       0.48879998       0.82561000       4.95480012       0.46858559      -1.67941600       1.90409768
Na       3.10914995       3.42765997       3.54213000       0.83876325       0.63275789       0.30739773
Na       5.11973001       7.85445021       6.64110995       0.51941567      -0.03400545       0.30936529
P        0.65508003       0.33801998       0.17397001      -1.96491751      -3.35117255      -0.66193665
P        7.90236995       3.69290992       4.45411012       0.70634212       2.16645182       3.03998303
P        3.77671005       8.18496035       3.52565006       3.92040042      -7.10672281      -2.39436426
P        3.71292994       4.27271987       8.26097966       6.95155484       0.21104078       2.47710926
F        8.52620034       4.69481989       3.10275010      -0.86598318      -1.55691512       1.89486553
F        1.33150004       6.94534016       7.16947981      -0.00980180       1.40308325       0.09375984
F        7.34066007       2.66385005       5.38990024      -3.33701378      -2.89983440       2.82264899
F        2.47062992       3.52697989       8.03265951      -3.50263740      -2.01187932      -1.64962208
F        5.40345004       5.04539013       0.02034997      -3.54556084      -0.09673144      -0.60012662
F        8.31494047       1.17321003       1.29704000       1.72630766      -0.11095560      -1.62355459
F        1.54386997       1.65011998       7.32263998      -1.51511252      -2.06115069       1.33369110
F        8.38805959       2.13907005       3.72944000       0.48884521       3.03153261      -3.34883854
F        8.51099016       7.45913983       0.55574003       0.33569375       1.77470324       0.00521216
F        2.32087992       7.41340015       3.11931988       1.60788693      -1.18700958       0.44812690
F        5.58108997       0.29959002       3.76378985      -2.92076498      -1.53316813       1.20123240
F        7.11960982       4.78651001       5.63690999       1.62849254       0.29915390      -2.89184538
F        3.72671006       4.84247016       6.00726984      -0.09879733      -0.28195381       3.11197479
F        4.67017984       5.80840020       2.93205999      -0.86343501       2.01522352       0.48237589
F        3.76448012       3.31918005       1.46110001      -0.30822716       1.41721420      -2.04586534
F        5.33921007       4.11402989       3.77607015       1.68668623      -0.88144781       0.12524240
F        0.71442005       3.69740011       5.45844987      -0.55514836       0.73086964      -2.65291969
F        3.00699995       0.75298002       3.71602012      -5.41618961      13.32854486      -1.80562281
F        4.15886022       8.40797046       2.12272998       1.23119799      -0.38669252      -4.39297362
F        4.74358986       2.96890998       7.81008009      -1.88795069       1.70837253      -0.03225478
F        3.44312003       8.06052970       4.98150018       2.25268582      -4.83792154       6.96269147
F        7.05261992       0.44998000       7.37883997       0.93881563      -0.08510501       0.15430945
F        1.94811999       8.56818008       1.04405002      -0.83128457       1.42056271      -1.18479635
F        2.71203992       5.44050984       0.44001998       2.39301963      -0.36707369      -1.04074156
32
Lattice="8.58119965 0.0 0.0 0.0 8.58119965 0.0 0.0 0.0 8.58119965" Properties=species:S:1:pos:R:3:forces:R:3 virial="1.5733458344631033 1.730657819748746 -8.052145432014067 1.730657819748746 -4.049085595005102 1.776393936514601 -8.052145432014067 1.776393936514601 -1.5355611600373331" Config_type=aimd1 Weight=1.0 energy=-136.02238769 pbc="T T T"
Na       4.79681011       3.44778992       2.27760004      -0.50207474       0.56907201       1.01805123
Na       0.21981000       7.63448000       3.46335004      -0.61481400      -3.23597829      -1.39374864
Na       6.38676980       8.04458042       6.98503018      -0.32973042      -0.87098239      -2.39414267
Na       6.94857982       4.71064998       5.87806984       0.20025206      -0.40672533       0.11970730
P        6.46149016       2.70454004       8.39529036      -2.08196007       0.68629012      -1.08926134
P        1.57524001       1.97773002       3.65188003      -1.49083346       7.13912991       2.00753243
P        5.60783002       7.34309009       3.68358996       0.86733301       0.48959205      -0.03209928
P        0.93264005       5.67151024       0.22355003       5.70783298      -2.55502315      -2.50772686
F        2.10998991       3.50010992       3.32766008       1.37904971      -0.53107216      -1.51548247
F        6.67135001       0.27551006       0.00848998       0.26951833       3.35095815       2.53821055
F        0.74648002       0.71855001       3.94477010       1.57545295      -1.38502946       1.12488304
F        8.09206964       5.70438001       0.66158998      -3.31341701       0.96254206       0.44341858
F        2.42222003       5.87501005       8.52696990       3.70696077       1.97611272      -3.54089624
F        6.11960985       4.41954994       8.09156035       1.33461206      -1.92844751      -0.03215274
F        7.93175987       2.71386000       6.81531001      -2.08477595       0.00814483       1.91836239
F        2.97329995       1.39302003       3.37704994       0.38659126      -1.47658948      -1.00298791
F        4.89535000       2.69420004       0.36703001       1.29045081      -0.60026578       2.07115386
F        4.62422992       7.19045020       2.51817990      -3.74045810       1.62908709      -0.24476546
F        7.03702024       7.48586993       4.87116003      -1.76022447      -1.37787305      -0.74484090
F        0.16835001       2.65721987       3.63124988      -3.12090335       2.65375259       2.31447680
F        0.58187004       7.15070011       7.31466006      -0.37964514      -1.28887648       2.24730549
F        4.47266010       5.67109011       4.60281991       1.36133298       2.51859523       0.25671261
F        1.34106001       4.29448985       0.87067006      -1.17179649      -2.31262139       1.52202433
F        0.36122002       1.98058001       1.81058001       3.77740207      -2.43039868      -0.58058045
F        1.79018001       2.39485004       5.22008988       0.30925672      -1.70286667      -0.64695596
F        6.51476002       8.27507977       2.68559001       0.29821287      -0.27247165       1.37738707
F        6.14239980       5.91577006       3.05111007       2.81657434      -0.23578792       1.25564985
F        0.89329001       4.72160002       7.41639997      -1.97508757       1.35181196      -0.45617567
F        5.03287986       0.25712003       4.62366012       0.50963719      -3.57698246      -1.62043624
F        4.82973000       2.26763006       6.90666006       2.39040051      -0.18863063      -1.02030579
F        7.18168021       2.94015001       1.40998996      -2.66473212       0.28424111      -3.51067353
F        1.55798999       6.26083992       1.69108998      -2.95041774       2.75729263       2.11835662
32