102
Lattice="12.409500122070312 -0.0 0.0 -1.2173082828521729 12.993307113647461 0.0 -1.4909436702728271 -0.3902343511581421 13.003180503845215" Properties=species:S:1:pos:R:3:forces:R:3 virial="-56.87059 3.8572154 9.620036 3.8572154 -60.72862 -0.8874093 9.620036 -0.8874093 -55.733353" Config_type="pbc=T T T1" Weight=1.0 energy=-373.40331132 pbc="T T T"
Na 8.217842102 8.189513206 12.48532391 -0.01053787954 -0.04981042072 -0.1361532658
Na 0.3708904684 3.861581802 11.61121082 0.03269356862 0.2497624904 0.1898417324
Na 5.462934017 1.181728244 12.76117325 -0.02823008969 0.8494777083 0.3332124054
Na -0.6563867927 7.600319386 12.12989044 -0.1137008071 0.4394205213 -0.03193825856
Na 1.768155575 1.363068938 2.345645905 -0.04555322975 0.328756243 0.05115249008
Na 2.25587225 2.040445089 5.379259109 0.05566402897 -0.05199341103 -0.0852092579
Na 6.011655807 9.997070312 6.067325592 -0.4135661721 0.2477542162 0.07010883093
Na 3.024534464 9.422398567 1.128249526 -0.1144001931 -0.07409395278 -0.05008755997
Na 4.6040411 3.874003649 1.258218169 0.119683072 -0.1792504936 0.3385654986
Na 4.412563324 0.2898359895 0.8261145353 0.0106562404 -0.1672002971 -0.3910200596
Na -0.6622383595 4.827493191 4.885988235 -0.1429749876 0.492095381 -0.3107099533
Na 8.917027473 1.694685221 7.710091114 0.0359816812 0.04261957109 -0.006861240137
Na 0.3867091537 11.21447372 1.57889688 0.3612750173 -0.6876971126 0.002571939956
Na 9.881477356 11.25477791 0.8098384738 -0.035572391 -0.254992038 -0.293443799
Na 0.9004804492 6.961670399 9.337229729 -0.4623693526 -0.03086517006 -0.1014703289
Na 5.776628494 11.94668484 8.61506176 0.2103862017 0.1177362502 -0.03956408054
Na 1.785311222 0.4963026345 8.379673004 -0.04226877913 -0.1283914596 0.3575995862
Na 8.698894501 3.920496941 4.923761368 0.3606242239 0.05591822043 -0.1030534729
Na 10.25109482 12.570961 6.411262512 -0.2418384552 -0.2274068445 0.05172315985
Na 10.07384777 4.955268383 11.63885307 -0.0673956573 -0.05447204039 0.05458812043
Na 0.113715142 11.01110363 7.288300514 0.2221995741 -0.4726014137 0.2538372576
Na 6.444016933 2.969238281 10.38199997 -0.01083023008 -0.164017126 -0.2152882367
Na -0.4188891351 3.880911589 1.821304798 -0.1386931986 -0.2504041195 0.2061403394
Na 9.22308445 5.746710777 2.47142911 -0.03817991167 -0.1025444493 0.03911516815
Na 9.93120575 8.324426651 4.556542873 0.1368071735 0.07545101643 0.1644323915
Na 1.195520282 11.07615089 11.68611526 0.0463905707 0.4595566392 -0.03556894138
Na 9.70635891 3.865811825 0.2090958208 -0.1125037968 -0.01171274018 0.3917898238
Na 0.8686129451 0.8668131232 11.16620541 0.1345533729 -0.7225905657 0.144302547
Na 4.059437752 9.652916908 3.616743326 0.1351312101 -0.04090192169 0.2461050749
Na -1.818954229 10.85429287 11.72771358 -0.05951843038 0.1611721069 0.1111815125
Na 9.799071312 5.38599968 8.225410461 0.2576461434 -0.2815960348 -0.09424606711
Na 2.899290562 9.292923927 9.648208618 -0.06380561739 0.1644720733 -0.27601704
Na 5.861496925 11.87242317 12.39814949 0.5278274417 -0.2390218824 0.06633201987
Na 0.05384530872 0.850541234 0.3102952838 0.1340344101 0.07359112799 -0.2123757601
Na 9.624751091 1.405686975 10.99905491 -0.01892982051 0.1771450639 -0.04493689165
Na 4.469426155 9.558429718 12.79873848 -0.06054535136 -0.3754211962 0.3837745786
Na 3.461806536 7.746602535 6.986175537 -0.1731596589 0.3225876093 -0.2306339443
Na 5.926174164 8.589028358 9.757292747 -0.1245150492 0.2083690166 -0.133784771
Na 2.091347933 5.506073475 2.383584738 0.1674822271 -0.1074406505 0.03261115029
Na -0.4176687598 3.500000238 8.489393234 -0.3719017208 0.318620801 -0.1650862843
Na -0.1905708015 8.158611298 6.135447979 0.0873009637 0.3853693008 0.3406019211
Na 6.212883949 6.769785881 0.5680906177 0.05708216876 0.3436445594 0.3780004382
Na 11.42611313 7.683104038 1.662611246 0.1189073324 0.09930235147 -0.02462046035
Na 5.656426907 12.273242 2.878361464 0.465123564 -0.2620712519 -0.456083566
Na 3.476414919 3.832345486 11.67714882 -0.04417233169 -0.1922132969 -0.2753896117
Na 9.979812622 0.7548677325 2.391325712 0.0390464887 0.06114939973 0.1381492168
Na 6.674149513 5.712852955 11.91731167 0.06755719334 -0.04229481891 -0.02263638936
Na -0.1285702735 9.600903511 9.589956284 0.2356825322 -0.05175770074 -0.2443850189
Na 6.889045238 6.989507198 5.471309185 0.1827602834 -0.2522355914 -0.3935663998
Na 9.281502724 11.64223099 9.343877792 -0.1065294221 0.3159476221 0.188301146
Na 8.780591011 10.0002594 6.830670357 0.05449412018 0.09439086914 -0.2393020988
Na 2.285690308 4.948414326 5.409225464 0.344098568 0.1664124876 -0.2639577687
Na 7.519886494 3.463430882 2.412691355 0.06890603155 0.1070053205 -0.1940305233
Na 3.002159357 3.48921752 8.463609695 0.3434841633 -0.01546243019 -0.3931279778
Na 9.076907158 11.1327486 4.016185284 -0.1900623441 -0.09946326911 -0.1508769691
Na 1.465289235 8.208088875 4.043607235 0.3715797663 -0.05686369166 -0.1828222424
Na 6.038828373 3.610131741 7.286802769 -0.09924176335 -0.4796230495 0.4297204912
Na 11.51035023 2.243006468 4.460746288 -0.2435239255 0.2711182535 -0.1845309734
Na 4.946063995 4.376554489 4.724475861 0.2763160169 0.3250634074 -0.4730807245
Na 5.111864567 6.85461235 3.20372653 -0.1027879268 0.3281918764 -0.1078012809
Na 4.731760502 1.017988563 6.454238892 0.04224406928 -0.07820604742 0.4118742645
Na 4.451221943 0.7312399149 9.934527397 -0.1129674092 -0.1539739966 0.1849816144
Na 2.685066938 12.26093769 4.251118183 -0.1247570291 -0.553860724 0.08865010738
Na 2.723097563 6.961833954 12.04123402 -0.3907115459 0.4142574668 0.1138260067
Na 7.11081028 9.371284485 2.715204954 0.03168733045 0.2645860314 -0.07824288309
Na 3.089163542 10.75497055 6.817799091 -0.2276189476 0.08619441092 -0.003003889928
Na -0.1724508107 11.36459351 4.394533157 0.05402093008 -0.08937823027 0.2369141728
Na 7.664262295 -0.02308914065 5.718142509 0.4863220155 0.03057277948 0.5189157128
O -0.6433297396 11.8087225 9.656777382 -0.1575944722 0.03448845819 -0.1088758633
O 10.01461792 6.288254738 0.3311469257 0.0995060876 -0.2334840596 -0.190782994
O 3.99474287 3.304455519 6.348014832 -0.5323434472 -0.07042366266 0.2994115055
O 1.053685904 12.87169838 0.1813903451 -0.1535566598 0.4298085868 0.06022347882
O 3.441995621 6.909734249 4.773836136 0.04445043951 -0.3388615549 -0.07045303285
O -0.7035607696 9.461826324 0.1538893878 -0.04318574816 0.1540942937 0.3355704844
O 2.325913668 2.262564659 10.13024426 -0.05653987825 0.0959745273 -0.03760536015
O 10.36259747 3.578551769 6.587253094 0.1846482158 -0.01688826084 0.1656130701
O 1.113999724 8.830324173 11.39503765 0.5566823483 -0.5654421449 -0.1383711696
O 3.531655788 12.27253723 12.14545536 -0.272985369 -0.4262255132 -0.1701180637
O 11.57943249 0.03227306157 4.081865311 0.7366265059 -0.2877345085 -1.400225997
O -1.525204659 10.18758392 6.040546894 -0.3230576813 -0.0948459506 -0.6195232868
O 9.820441246 3.199473858 2.864343405 -0.003738869913 0.09044609219 -0.1947979927
O 7.920693874 10.68031883 11.2393465 0.3329896629 1.838107944 0.3330694437
O 7.680501461 8.95797348 4.918782711 0.4579504728 0.4522461593 0.1225222498
O -0.4795994759 7.086638451 3.841976643 -0.580640316 -0.2700437605 0.5135742426
O 8.110809326 12.41544437 7.452480316 -0.06912057847 -0.2210097462 -0.3605271876
O 5.407816887 7.594773293 11.67053032 -0.3684527874 -0.05324320868 0.2804203629
O -0.9319111109 5.385179996 9.822821617 0.4017168581 -0.1022290364 0.2365344465
O 4.667710304 9.808197975 8.152669907 0.5293567181 -0.1698331237 -0.003600979922
O 6.306311607 1.398656607 8.521684647 -0.02005927078 0.2958606184 0.03423082829
O 5.660683155 3.577118158 12.57377338 0.09527281672 -0.3690581322 -0.1784334481
O 4.815932751 11.86579037 4.908434391 -0.3267620504 -0.4456841052 0.0695117265
O 10.52762318 2.672157764 12.62507629 -0.05190454051 0.1542280465 -0.238306731
O 1.361132741 12.65205097 6.359107971 0.3111754954 0.5955583453 -0.4048184454
O 3.50879693 5.445541859 0.2525909543 0.02729870938 0.02909493074 -0.3559544384
O 1.946475267 10.20570946 3.144873619 -0.2317364663 0.7379506826 -0.1732603163
O -1.211577296 12.78586006 2.609084845 -0.7376076579 0.2185801268 1.211115003
O 8.326544762 12.29998684 11.60282993 -0.3141183853 -1.774483323 0.02823947929
O 7.86524725 11.58089447 1.780890107 -0.2307433039 0.1717473119 0.349322468
O 1.212249756 3.530676842 3.628103733 -0.1628738344 -0.1385564059 0.3270445466
O 5.196886063 8.779027939 1.757110953 -0.2285384685 -0.3266761303 -0.2487242371
O 7.028600693 5.382805347 3.636874676 -0.3112909496 -0.2285342067 0.3211030066
O 1.458337665 8.780771255 7.757888794 -0.3431098461 -0.2408121079 0.3328603506
102
Lattice="11.648741722106934 -0.0 0.0 -1.1901205778121948 12.856474876403809 -0.0 -1.0294570922851562 -0.7014729380607605 11.89373779296875" Properties=species:S:1:pos:R:3:forces:R:3 virial="4.4632516 0.36405784 -0.080227725 0.36405784 -27.746763 0.75049824 -0.080227725 0.75049824 21.765469" Config_type="pbc=T T T1" Weight=1.0 energy=-377.10347891 pbc="T T T"
Na 7.99948597 7.716456413 11.16950226 -0.002143080113 -0.09811604023 0.2396773845
Na 0.8078458905 3.646376371 10.66207695 -0.4485347271 -0.4121805727 -0.2156142443
Na 5.496261597 0.9191679955 11.8558979 0.08129414171 -0.02185041085 -0.1589036733
Na -0.2720077634 7.255383492 11.05344296 -1.065916777 -0.1346289068 0.3160398304
Na 1.758703113 1.507651687 1.986225724 -0.07895488292 -0.126836434 -0.04631470144
Na 2.323648453 1.787247062 4.862620354 -0.3335777819 0.1250676066 -0.2394386381
Na 5.864120483 9.836512566 5.664556503 -0.3208682835 0.4790590405 -1.04582572
Na 2.671678782 9.223819733 0.8988133073 0.1111982986 0.2272190899 0.3535968065
Na 4.503969669 3.788213491 1.189911008 -0.1419917494 -0.04176884145 0.2130251974
Na 4.256026745 0.3010976613 0.6470940113 0.09004934877 0.07888382673 0.2017692178
Na -0.5653909445 4.654545307 4.351139069 0.007617990021 0.5628852248 0.001877720002
Na 8.632019043 1.564223051 6.90990448 0.08047959954 0.1644117683 0.272936672
Na 0.3601816893 10.84292126 1.402656674 -0.1608306766 1.005053163 -0.3189150095
Na 9.109324455 11.02272224 0.6687930822 1.18765521 -0.3477362096 -0.2276725471
Na 1.11781168 6.622376442 8.627836227 -0.2033986151 -0.15860641 -0.3173443675
Na 5.745246887 11.72647762 7.907579422 0.02070813999 -0.1314260066 0.2571546733
Na 1.806147456 0.270363301 7.620147705 -0.311365962 0.1417478472 1.005546331
Na 8.382246017 3.734866619 4.426972866 -0.5543782711 0.202702865 0.1480136067
Na 9.726195335 12.25421906 5.800997734 0.1818404943 -0.3080289662 0.6370797157
Na 9.802152634 4.634228706 10.60596848 -0.7978888154 -0.4036956131 1.006131411
Na 0.2454840243 10.49662781 6.640202045 0.5774826407 0.6247212887 0.7804123163
Na 6.476499557 2.551771164 9.394921303 0.03197824955 0.1828600764 0.3001127243
Na -0.3600864112 3.755083561 1.610519886 0.06556013972 -0.002190059982 0.407913357
Na 8.713143349 5.624451637 2.185946465 -0.6025813222 -0.01548037026 1.485060573
Na 9.622121811 8.163427353 4.175312519 -1.126908064 0.3928289413 0.06720539182
Na 1.593506217 10.78901196 10.70505142 -0.5288301706 -0.2436594665 -0.2692338526
Na 9.033513069 3.855129242 0.3393282294 0.001567360014 -0.2920234203 -0.4604932368
Na 1.144406676 0.4173375666 10.15013313 -0.3046972752 -0.4137185812 0.5355008841
Na 3.817196608 9.58727169 3.428829432 0.3509783149 -0.2400123626 0.09927684069
Na -1.478411674 10.6106205 10.71832466 0.1667532027 -0.2598333657 0.4395701587
Na 9.432215691 4.988585472 7.518491268 -0.08744685352 -0.04497238994 -0.2002282292
Na 3.057578564 9.061392784 8.802535057 0.06872627884 0.1167326272 0.1078759208
Na 5.952060699 11.44742203 11.38844681 -0.3536175191 -0.2570110559 -0.1207229272
Na -0.04236726835 0.884100616 0.1512905955 0.590708375 -0.04628596827 0.7067577839
Na 9.36493206 1.236677647 9.996282578 -0.3376446366 -0.3762405813 -0.6802082658
Na 4.434131145 9.029192924 11.7249794 0.1829940677 0.1899706721 -0.05475049093
Na 3.541061163 7.583143711 6.330976963 -0.165814817 0.4344646037 0.410469979
Na 5.829551697 8.376873016 8.865829468 0.4714507461 -0.2523491383 0.3097764552
Na 2.121355295 5.365103722 2.068347692 -0.1853341162 -0.1889508665 0.2006673068
Na -0.03446210921 3.227965355 7.670436382 -0.3275290728 0.1119750068 0.04182409868
Na -0.08772072196 7.998318672 5.612881184 0.5539361238 -0.1457121819 0.6542154551
Na 5.718474388 6.618581295 0.4655325413 -0.01330882963 0.08751534671 0.7617127895
Na 10.7362175 7.626029015 1.692264795 -0.1246350184 0.1003468782 -0.8692901731
Na 5.266651154 11.9360857 2.515958786 0.4847508073 -0.1176952422 -0.1273622662
Na 3.60794425 3.359793663 10.62449932 -0.2972489595 0.01570473984 -0.4658334851
Na 9.294350624 0.7899922132 2.180120468 0.2342649549 -0.3584439754 0.1854435951
Na 6.465713024 5.266585827 10.81000328 0.6226217747 -0.2272375077 -0.3187738657
Na 0.1791279167 9.140317917 8.78869915 -0.3576310575 0.3284173012 0.4364736378
Na 6.628610134 6.814990044 4.905397415 0.02597522922 -0.2975714505 0.06640402228
Na 9.009711266 11.33757019 8.586450577 -0.5474696755 0.2516515553 -0.3203899264
Na 8.273968697 9.631611824 6.298143387 0.4802339077 0.1788437068 0.1403861791
Na 2.224870205 4.654904842 4.979888439 0.1461707801 0.386094898 -0.0951486975
Na 6.98413229 3.454747677 2.135546923 0.06896732748 -0.3870611489 -0.1880660802
Na 3.172428608 3.314737797 7.745704651 -0.3534193337 -0.1464637071 0.7406128645
Na 8.435399055 10.78137112 3.625804424 0.214642182 0.2456229627 0.1408017427
Na 1.541480064 7.931349754 3.516442537 0.3194265068 0.04393484071 0.1615349948
Na 5.783475399 3.197726488 6.703600407 0.5480753183 0.005429369863 0.1056604683
Na 10.92441273 2.152757168 4.093874454 -0.1188457981 -0.3196212947 -0.09054291993
Na 4.738017082 4.346734047 4.369332314 0.2398260236 0.4231951535 -0.4260265529
Na 4.78236866 6.618315697 2.966877699 0.8597460389 0.8512666821 -1.23035872
Na 4.590207577 0.790694356 5.961509705 0.247111097 -0.1871312559 0.10308671
Na 4.487371922 0.3348076642 9.134893417 -0.2394619733 0.0009240100044 0.1042085215
Na 2.565817118 12.04684067 3.785926342 -0.3549438417 -0.165949896 0.01662499085
Na 2.824535847 6.757171154 11.06248569 0.4481721818 -0.627661407 0.1782950759
Na 6.762215137 9.248354912 2.303551674 -0.05273558944 -0.1793220341 0.09196185321
Na 2.939664841 10.58019638 6.243105412 0.3475328684 -0.02547588013 0.03234776855
Na -0.08654565364 11.055686 4.007567406 0.1425443739 0.4694811106 -0.2386638373
Na 7.539319038 -0.1901460439 5.346243382 -0.7038898468 0.03282130882 -0.6682369113
O -0.4507887363 11.34578896 8.819084167 0.4649210572 0.07327730954 -0.2175149918
O 9.351415634 6.1561203 0.3373904824 0.5556094646 0.4004051685 -1.262429357
O 3.829845667 3.1473279 5.794422626 -0.3932163119 -0.561612308 -0.03708567098
O 1.021401644 12.7956562 0.1733578891 -0.4820822179 0.01657591015 0.04271110147
O 3.452396393 6.618740559 4.44788599 -1.297690511 -0.6416119337 0.2978258729
O -0.7508584261 9.430345535 0.281883359 -0.4031044245 -0.6583808064 -0.5892442465
O 2.384631872 1.917205453 9.330851555 0.3676585555 0.5996607542 -0.7237076163
O 9.881044388 3.28900218 5.944746971 0.5484491587 -0.08142215759 0.4912885725
O 1.482182741 8.289821625 10.52964306 0.27820912 0.7626715302 -0.6727843285
O 3.608172655 11.73492432 10.97461891 0.3585188389 0.242433995 0.06904648989
O 10.9283371 -0.1441540271 3.776928425 0.4409301281 0.3922686279 -2.116384745
O -1.319939613 9.92668438 5.428930283 -0.9751341343 -0.5438072085 -0.4690961838
O 9.171668053 3.096814394 2.49760747 0.4709495008 0.01830640063 -0.2541977167
O 7.648600578 10.33240509 10.17575455 0.2931409478 1.369340062 0.5095868111
O 7.290530205 8.783082008 4.431547642 0.886086762 0.1465070248 -0.1970474571
O -0.4261206985 6.830458641 3.650576115 0.1778661758 -0.5974418521 0.1856008768
O 7.737409592 12.13525295 6.833297729 0.5446703434 -0.3556375802 0.2382081151
O 5.406335354 7.156272888 10.68247414 -0.270906657 0.5048662424 -0.2156277448
O -0.5997675061 4.99294281 9.044477463 1.442999005 0.5950152874 -0.7543161511
O 4.821033001 9.512040138 7.376132965 -0.9305426478 -0.07761414349 0.8277340531
O 6.176344872 1.184798002 7.730766296 0.03085703962 -0.1194111407 -0.2617354989
O 5.622826576 3.189617395 11.46832085 0.2686137259 -0.3999728262 0.3596707582
O 4.574695587 11.51537609 4.650066853 -0.2192986608 0.1172614694 -0.1045162082
O 10.32663536 2.348957539 11.47495461 0.1447373927 0.3893219531 -0.2075857967
O 1.242838025 12.51343346 5.769778728 0.7156558633 -0.3430609703 -1.108089447
O 3.280952454 5.328163624 0.1162589118 0.5550999045 0.4332286119 0.3057813048
O 1.737514496 10.14375591 2.773441076 0.6204231977 -0.4559035897 0.9743659496
O -1.190497041 12.65447998 2.270076275 -0.579118669 0.1860227138 1.547955632
O 8.109695435 11.85059929 10.81217575 -0.530774653 -1.230336905 -1.160765409
O 7.370403767 11.39577198 1.6825248 -1.391158223 0.2963064909 0.4312914014
O 1.188935995 3.403048754 3.336021662 -0.0221420303 -0.08798907697 0.02641990036
O 4.793233871 8.629306793 1.635107636 -0.5028341413 -0.6558448672 -0.3392349482
O 6.544695377 5.146846294 3.369674921 0.1360947639 0.2124240845 0.01364498027
O 1.541352153 8.593733788 7.221007347 0.04731556028 -0.4047306776 -0.7004517913
102
Lattice="11.41004467010498 0.0 0.0 -1.1975895166397095 11.992721557617188 -0.0 -1.5670517683029175 -0.9810765385627747 12.142760276794434" Properties=species:S:1:pos:R:3:forces:R:3 virial="43.075394 8.394137 15.627289 8.394137 33.518707 15.612602 15.627289 15.612602 27.600199" Config_type="pbc=T T T1" Weight=1.0 energy=-376.02685947 pbc="T T T"
Na 7.179214954 6.984083652 11.56623077 -0.1278203726 -0.06657733768 -0.3651245236
Na 0.1231499389 3.157570124 10.73302746 0.3530757427 -0.2499878854 0.5936073065
Na 4.820854664 0.4201981127 12.002491 0.8070279956 2.442827463 0.9014074206
Na -0.8540933728 6.568203449 11.19228458 -0.7735528946 -0.7061241269 0.193291381
Na 1.627617478 1.317458391 2.117946386 -0.04357650131 0.01465020981 0.1240872294
Na 1.970211148 1.623834848 5.070937157 -0.9878615737 -0.2842105627 -0.6595643163
Na 5.359320641 8.903752327 5.671450138 -0.3333296776 0.4418193698 0.2192198187
Na 2.520677805 8.599158287 0.9765717983 -0.2256052792 -0.1706819087 -0.1626320183
Na 4.147246838 3.372462034 1.191071033 0.2467102259 0.01134179998 -0.06335239112
Na 4.148880959 0.2776377797 0.6878705025 -0.3768719137 -0.1465750635 0.3008318543
Na -0.7834272385 4.312943935 4.410058022 -0.3064690828 0.08160667866 0.3988936841
Na 8.119574547 1.345607042 7.096328735 -0.3363004625 -0.5544502139 0.2405804098
Na 0.3063141108 10.1424799 1.469309926 -0.09743490815 0.3477003276 0.06388519704
Na 8.894880295 10.17465782 0.7960757017 1.260991931 0.08713132888 -0.416318208
Na 0.6403773427 5.931042671 8.707919121 -0.04137387872 -0.1881820858 0.04812306166
Na 5.268600464 10.705616 8.214737892 0.128587991 -0.1452865154 -0.07381737232
Na 1.492324233 0.1268831939 7.93165493 -0.2041411549 0.02327363938 -0.1188395619
Na 7.939459801 3.424025536 4.529588223 -0.2029267848 -0.01960070059 0.3763459623
Na 9.23848629 11.21968269 5.808342457 -0.2436597198 0.4056467116 0.3865311146
Na 9.031841278 4.001394749 10.80125809 -0.2401868701 0.2182856351 0.1841888875
Na -0.1762031913 9.785179138 6.846601486 1.510626435 0.334012717 1.129870653
Na 5.724624157 2.254191399 9.698953629 0.1714402139 -0.1520372033 -0.2005187571
Na -0.5517643094 3.503636122 1.82608676 0.1736550778 0.02080588043 -0.3423645496
Na 8.267604828 5.189398766 2.229935646 0.01346156001 0.2913730443 0.2845576108
Na 9.020819664 7.545867443 4.369714737 1.051247239 -0.9111542106 -0.1696194261
Na 1.032554984 9.808132172 10.82300186 -0.5953475237 -0.06235016137 0.04714439064
Na 8.862922668 3.505449057 0.2953473926 -0.2194709629 -0.007326870225 -0.1043732911
Na 0.6039114594 0.2361208051 10.56988907 0.04009607062 0.02345436066 -0.4174074829
Na 3.650975704 8.814381599 3.406910896 0.4068417251 -0.1594665945 0.3030965626
Na -2.021906853 9.531589508 11.06259537 0.01986733079 -0.1285494119 -0.5551664829
Na 8.814945221 4.437474251 7.637229919 -0.1596356183 0.5305580497 0.2889442444
Na 2.537430286 8.297698021 9.051136971 0.3217215538 -0.01207976975 0.268140465
Na 5.142466068 10.31738281 11.5979023 0.2549327612 -0.2786803842 -0.2141428739
Na -0.0684100315 0.8246983886 0.1818128228 0.1978123337 0.1859975457 0.7407401204
Na 8.738378525 0.8575738072 10.21600246 -0.5835767388 -0.4626613259 -1.095491767
Na 3.767449141 8.150045395 12.06851006 0.01518162992 0.2144923359 -0.1469320953
Na 3.002703428 7.066739082 6.525895596 0.1301362365 -0.3983706832 -0.1745996326
Na 5.376915932 7.453660488 9.017071724 0.09475038946 -0.2464866191 0.4236125648
Na 1.81991291 4.779355526 2.08290267 0.1124841794 0.3853200376 0.171091795
Na -0.5682544708 2.81175518 7.719979286 1.000261784 -0.2673223019 0.594852984
Na -0.2548949718 7.203539371 5.940855503 -0.656316936 -0.2383175045 -0.4472440779
Na 5.632991791 6.174519062 0.6650239825 -0.1659626216 -0.6751084328 -0.07388310879
Na 10.34393406 7.026108742 1.565353155 0.6759525537 0.2315075547 0.6169990301
Na 5.1765728 11.1476965 2.501955986 -0.4064181149 0.08891527355 0.243265748
Na 2.929012537 2.975087643 10.6677618 0.8950029016 1.396691084 1.791111231
Na 9.024845123 0.5997639298 2.207565546 0.01539822016 0.1161906794 -0.1009706408
Na 5.969208241 4.741138935 11.00434017 -0.1647767276 -0.6438168287 -0.2377903163
Na -0.1611584127 8.386897087 9.042074203 -0.9427998662 0.08700425178 -0.1340122968
Na 6.217561722 6.101603031 4.933320999 0.3511319757 0.8840735555 1.271008492
Na 8.289497375 10.34734058 8.623501778 0.130128473 0.04361673817 0.1914759427
Na 7.804342747 8.975848198 6.331062317 0.3173287511 -0.511310041 0.4734242558
Na 1.962819934 4.383014202 4.984106064 -0.2433929592 -0.1450705677 0.3561368287
Na 6.681574345 3.116496801 2.165504456 0.05977185816 -0.6018838882 -0.3868247569
Na 2.795179367 2.867766142 7.926496506 -0.1392962784 0.1847438514 0.03573355824
Na 8.130275726 9.869359016 3.649205923 0.1593074799 0.6386116743 0.0319990404
Na 1.202108502 7.364863873 3.755342722 0.6538929939 0.1108630672 -0.2264829129
Na 5.431557178 2.960270405 6.763696194 0.7800312638 -0.1736989766 0.5995215774
Na 10.34917355 1.827991486 4.092722416 0.2244837433 0.6645838618 0.5840284824
Na 4.347808361 3.90259099 4.426273346 0.08915063739 0.05220333859 -0.4756312668
Na 4.545940876 6.310433388 3.057617426 0.5819293857 -0.1803973019 -1.278953791
Na 4.149988651 0.5320543647 6.053262234 1.542434812 0.1900468171 0.3404587209
Na 3.869449854 0.09001991153 9.315670013 0.1188184619 -0.0287906006 -0.03297615051
Na 2.246175289 11.05513191 3.903036833 0.3137214482 1.034282327 0.187854737
Na 2.330929756 6.093852997 11.21623611 0.412281692 -1.212910533 0.6307100654
Na 6.421168327 8.490907669 2.387325048 0.1035459414 -0.03665148839 -0.02019128948
Na 2.65577364 9.731208801 6.419066906 -0.1495968401 0.3016458154 -0.07648792863
Na -0.1864388287 10.22280312 4.198711395 -0.09117999673 0.01909486018 -0.1768746227
Na 6.961102486 -0.3939870894 5.349764824 1.713677287 1.705586314 0.7999710441
O -0.8582599759 10.41628075 8.871548653 -0.2510994673 0.6505957842 0.7329981923
O 9.217120171 5.872396946 0.2221893221 -0.4367734194 -0.8100442886 0.0596995391
O 3.526072741 2.644499302 5.966393471 -0.2296974063 1.04098928 -0.09832648933
O 0.8126097322 11.90518761 0.1277255714 0.4946564734 0.2278216183 0.5309377313
O 3.075991631 6.100512505 4.369924068 -0.7492204905 0.2050422579 1.239589453
O -0.7578883171 8.710621834 0.2116122544 -0.04048636928 0.3617201447 0.01249319036
O 1.997046709 1.657556295 9.551395416 -0.829280138 -1.181763887 -1.286332369
O 9.440307617 2.87279129 6.23263073 -0.4727049768 -0.02861112915 -1.430953622
O 0.9457727075 7.487648964 10.6760025 0.1428375542 1.146255732 -0.310969919
O 2.954043627 10.79240894 11.21405029 -0.4922095239 -2.046025276 -0.9194194674
O 10.54686451 -0.2022419274 3.674856186 -0.04802326858 -0.8628567457 0.7072550058
O -1.536967039 9.041531563 5.647624493 -1.031647325 0.02683708072 -1.273998022
O 8.910082817 2.814071178 2.653131962 -0.2221513838 0.3864325285 -0.5180116296
O 7.002684116 9.434604645 10.37683201 -0.5511114597 -1.244686961 -0.6171503067
O 7.071635723 8.087996483 4.499337673 -1.655065298 -0.06653421372 -0.4801077247
O -0.6475307345 6.359153748 3.776525497 -0.5986106992 -0.5225877166 -0.3639799654
O 7.115380287 10.98210907 6.794046879 0.9026066661 0.2326952666 0.5895070434
O 4.596607685 6.33398962 10.96480942 0.1390205771 0.9750224352 -0.5915560126
O -0.8999134302 4.348818779 9.210759163 0.01343685016 0.8035293818 -0.263042897
O 4.234255314 8.713468552 7.691570282 0.1270403564 -0.05433867872 -0.5640108585
O 5.732978821 0.8332378268 7.923039436 -0.1640047282 0.6088027954 0.2142710388
O 4.98202467 2.710993528 11.84770775 0.02173033915 -0.372500509 -0.002129609929
O 4.26015234 10.76453304 4.609463215 -2.012059212 -1.79290998 -1.088193059
O 9.438550949 2.013999224 11.73097134 0.5442888737 0.07038657367 0.6119482517
O 2.330760956 -0.4236898124 5.862179756 -1.283138752 -1.013446808 0.1163034067
O 3.13246727 5.017329693 0.2755525112 0.01273752004 0.07724540681 -0.4796773791
O 1.688951612 9.352373123 2.932509899 -1.129466414 -0.4350330234 -0.3056809008
O -0.14343445 -0.1849842072 2.365563631 0.4711941183 -0.1562234461 -0.5758957863
O 7.287432671 10.71703911 11.04183865 0.2816182673 1.197694778 0.05278420076
O 7.114481449 10.58243465 1.678747058 -1.388667703 -0.4352475703 0.02826113068
O 0.8540079594 3.083169937 3.535181999 0.5421860814 -0.3041691482 -0.2744193077
O 4.494905949 7.894635677 1.542630553 0.4050904214 0.3536283672 0.1381516457
O 6.203000546 4.689493179 3.503753424 0.1525629163 -0.4499458671 -0.8100623488
O 1.062286258 7.852054119 7.416861057 0.9443932772 -0.3316142559 -0.268437773
102
Lattice="11.76090145111084 -0.0 0.0 -0.9539174437522888 12.57445240020752 0.0 -1.3284204006195068 -0.0428447499871254 12.541236877441406" Properties=species:S:1:pos:R:3:forces:R:3 virial="-10.34298 -2.0470853 6.9586926 -2.0470853 -24.93372 -10.118434 6.9586926 -10.118434 -18.709393" Config_type="pbc=T T T1" Weight=1.0 energy=-377.885955 pbc="T T T"
Na 7.907777786 8.201312065 11.89040375 0.05297666043 -0.1967371106 -0.02980127931
Na 0.5056552291 4.0400877 11.12238884 -0.02642869018 0.172522679 0.3067980111
Na 5.334122658 1.461579919 12.4211216 -0.1257812381 0.1253681034 -0.09718070179
Na -0.3969801366 7.739624023 11.69301128 -0.9731280804 -0.2839852273 0.2951522768
Na 1.692469954 1.561513901 2.323930979 0.1991045177 -0.1472970694 -0.2568097115
Na 2.07753849 2.048310518 5.078289509 0.03544617817 0.04832385853 0.195517987
Na 5.798704147 10.03146839 5.936978817 0.4793618917 -0.4400673509 -0.1084744334
Na 2.885954618 9.063494682 0.9905861616 0.1096659303 0.1310291737 0.3919113576
Na 4.530324459 3.667117357 1.204889297 -0.008626479656 -0.1440510154 -0.06513843685
Na 4.152789593 0.2463484406 0.6533387303 1.29978478 0.1534917802 0.2296680957
Na -0.5596625805 4.927150726 4.647384167 0.03530403972 -0.2092781961 0.2157671005
Na 8.611880302 1.911851048 7.295242786 0.01973409951 -0.0003491500102 0.07012844086
Na 0.5187017322 10.8435564 1.579748631 0.06016080081 -0.2226811945 -0.1256534755
Na 9.453221321 10.78926754 0.6699423194 0.183153376 -0.04823271185 0.05635213107
Na 0.9964480996 6.939530373 9.110349655 0.3819118142 0.3527964056 -0.4289326668
Na 5.804969788 11.99025631 8.408447266 0.2401973456 -0.5135387778 -0.07609330863
Na 1.789306402 0.796847403 8.222172737 -0.2618900537 -0.1511935592 -0.2125180662
Na 8.446532249 3.893671751 4.654239178 -0.385543704 0.07696399838 -0.1530465335
Na 9.941427231 12.36420918 6.141038418 0.2642682791 -0.2009502798 0.06349766999
Na 9.562511444 5.024698734 11.19217777 0.5608249903 0.1711259633 -0.2726842761
Na 0.3880137205 10.8200798 7.129752159 -0.2925178111 -0.31928882 -0.137432918
Na 6.357170582 3.081930399 9.79022789 -0.1187888831 0.07434900105 0.4338713884
Na -0.3488375843 3.841568232 1.885065317 -0.3859619796 0.09081734717 -0.8216827512
Na 8.718120575 5.684894562 2.325622082 0.07612007856 0.02938188985 0.01004851982
Na 9.59397316 8.287201881 4.453470707 0.5168428421 -0.4150898755 -0.1974248141
Na 1.449002624 11.01164055 11.24628735 0.2908437848 0.7799553871 0.01788730919
Na 9.234213829 3.649482012 0.2440611273 0.02737173066 0.006875200197 0.3608567417
Na 0.7311841249 1.012029767 10.81353664 0.3189797103 0.1273948699 -0.2817209661
Na 4.041998386 9.513744354 3.542266846 0.3885344267 -0.4453267753 0.1209866777
Na -1.413170099 10.87843323 11.25454044 -0.3544175029 0.04627047107 0.2966812253
Na 9.541109085 5.336655617 7.938579082 -0.2715303898 0.117411308 -0.1768483669
Na 3.047385693 9.248646736 9.381985664 0.2081265748 0.1655412167 -0.2882438898
Na 5.979113579 11.70264816 11.90103149 -0.2121528089 0.2508651316 -0.0170428101
Na 0.08323080838 0.8941629529 0.3748303652 -0.1243382394 0.01830169 -0.2792380154
Na 9.114607811 1.724838018 10.46890163 0.06397578865 0.1132238805 0.03440766037
Na 4.555235863 9.566082001 12.38351154 -0.3395511806 -0.1483866721 0.0357304886
Na 3.416171551 7.77644825 6.776580334 0.2935806513 0.09581065178 -0.4298919439
Na 5.819100857 8.656831741 9.431763649 0.5241999626 -0.04939527065 -0.06965787709
Na 2.130645514 5.222538471 2.355436563 0.09981057048 0.2388109267 -0.3549827337
Na -0.2534809113 3.708837032 8.141787529 0.1377118528 -0.2132173181 -0.1635082215
Na 0.03385451064 8.014871597 5.940924644 0.1658265442 0.3385927379 0.3414001763
Na 5.872018814 6.513543606 0.5990914702 0.1632821262 -0.01480672043 0.05507973954
Na -0.7078236938 7.396964073 1.7108711 -0.2393481135 0.3842988312 -0.857062757
Na 5.652130604 11.88516808 2.730066538 -0.3216245174 0.1131438315 0.1799844354
Na 3.376993656 4.053323746 11.12064934 -0.05576594174 0.01454863977 0.0004674200027
Na 9.390604019 0.7667322755 2.274235964 0.2510385513 0.1001621634 0.2588024437
Na 6.431584358 5.744762897 11.4556427 0.1536199749 -0.07111036032 -0.1163046509
Na 0.2289346009 9.507222176 9.352062225 -0.3137823343 0.1312052757 -0.7339082956
Na 6.697545528 6.863461018 5.191313744 -0.01144498028 -0.003729779972 -0.1971579045
Na 8.924568176 11.64932346 8.989559174 0.1081238836 -0.03486642987 0.05049546063
Na 8.545906067 9.861527443 6.560828686 -0.04971415177 0.02657271922 -0.1019258574