8
Lattice="2.460108518600464 -4.261033058166504 0.0 2.460108518600464 4.261033058166504 0.0 0.0 0.0 8.76521110534668" Properties=species:S:1:pos:R:3:forces:R:3 Config_type="disp-51" Weight=1.0 energy=-19.98427191 virial="6.71938 0.84477 2.76876 0.84477 3.67971 0.92265 2.76876 0.92265 10.56905" pbc="T T T"
Na 1.386010051 -0.8407099843 2.97420001 -1.063109994 -0.275842011 0.1798599958
Na 0.8740400076 1.415140033 6.24973011 -0.2036149949 0.0339669995 -0.2480040044
Na 3.142760038 -0.2139099985 4.56896019 0.7224879861 0.492208004 0.8904200196
Na 2.827850103 -3.575459957 0.4187900126 -0.1456290036 -0.3100529909 0.1003009975
Na 2.765170097 1.617900014 1.072049975 0.2973830104 -0.02969199978 0.3235319853
Na 3.117439985 2.779040098 7.413710117 -0.0001900000061 -0.04718299955 -0.6000339985
P 3.768719912 -0.7588300109 2.085119963 1.266222954 0.2273149937 2.412597895
P 2.724679947 -0.9520999789 0.3132799864 -0.8735499978 -0.09071999788 -3.058672905
16
Lattice="5.582461833953857 0.0 0.0 0.0 6.000758647918701 0.0 0.0 0.0 10.053715705871582" Properties=species:S:1:pos:R:3:forces:R:3 Config_type="disp-17" Weight=1.0 energy=-55.24319072 virial="14.59237 0.75969 0.19607 0.75969 11.25057 0.17741 0.19607 0.17741 4.90325" pbc="T T T"
Na 2.823940039 4.906199932 9.422229767 0.4726470113 0.04637400061 0.4227299988
Na 4.724279881 5.578750134 4.428989887 1.180259943 -0.7218120098 0.5037900209
Na 4.945049763 2.491699934 1.940209985 -0.4512209892 2.677905083 0.01590700075
Na 1.902050018 0.7675899863 3.870249987 -0.8589059711 -0.394735992 -1.152333021
Na 1.086390018 2.996089935 9.096369743 -0.1033940017 -0.3114050031 0.02094200067
Na 3.91979003 2.178689957 4.62762022 0.09496600181 1.392249942 -1.586966038
Na 2.166150093 4.849180222 6.067679882 0.9850109816 0.5895419717 0.5695559978
Na 4.945370197 1.171659946 6.81069994 -0.1379159987 -0.5573999882 1.038872004
P 3.255480051 4.769139767 2.614079952 -1.175112009 -0.8253470063 -0.9471380115
P 5.058879852 4.2988801 7.23514986 -0.4583359957 0.1604239941 0.5336779952
P 2.082429886 1.86943996 6.194340229 -1.115120053 -0.2338739932 2.081702948
P 2.135129929 2.895139933 2.287290096 1.080734968 1.319026947 -0.4786059856
P 5.455460072 0.2786499858 1.547539949 -0.2725999951 -3.051768064 -0.8397539854
P 4.215119839 1.156720042 9.38010025 -4.132789135 2.182346106 0.5484560132
P 0.4069899917 0.4375399947 9.496139526 4.525065899 -2.181665897 0.6487159729
P 0.3935199976 3.203670025 5.681809902 0.3667089939 -0.08985900134 -1.37955296
8
Lattice="2.460108518600464 -4.261033058166504 0.0 2.460108518600464 4.261033058166504 0.0 0.0 0.0 8.76521110534668" Properties=species:S:1:pos:R:3:forces:R:3 Config_type="disp-53" Weight=1.0 energy=-18.91102191 virial="6.34513 0.15516 -3.86621 0.15516 3.7939 -2.07729 -3.86621 -2.07729 6.16654" pbc="T T T"
Na 1.122110009 1.560140014 6.648709774 -0.6623029709 0.09196600318 0.6598190069
Na 2.51244998 -1.435080051 3.859930038 0.05700000003 1.346608996 0.3153190017
Na 2.151469946 -2.979549885 0.7231199741 -0.647044003 -0.1765079945 -0.6991009712
Na 0.1945199966 0.04893000051 4.724050045 0.1346130073 -0.7033429742 -0.04820799828
Na 1.669610023 1.611860037 2.594549894 1.215914965 -0.8157140017 0.6398969889
Na 2.217279911 2.664299965 0.41049999 0.02903000079 0.6927409768 -0.5425789952
P 1.023440003 -1.318130016 6.915500164 0.638010025 -0.793833971 0.01388399955
P 3.089750051 1.58968997 5.034450054 -0.7652209997 0.3580830097 -0.3390299976
8
Lattice="2.460108518600464 -4.261033058166504 0.0 2.460108518600464 4.261033058166504 0.0 0.0 0.0 8.76521110534668" Properties=species:S:1:pos:R:3:forces:R:3 Config_type="disp-45" Weight=1.0 energy=-18.73499054 virial="5.25078 1.22913 0.24981 1.22913 4.09761 -1.87653 0.24981 -1.87653 0.47536" pbc="T T T"
Na 4.233940125 0.1481699944 7.726150036 -0.1015240029 -0.4221360087 -1.297356009
Na 3.454319954 -0.970269978 1.189739943 0.2375739962 -0.3725790083 0.0154020004
Na 2.495290041 -0.01145000011 4.165740013 0.5641700029 -0.422048986 1.724728942
Na 2.705830097 -3.50999999 3.382319927 -1.034086943 1.440708995 0.1343130022
Na 1.226909995 0.3833500147 1.091820002 0.1571069956 0.5890650153 -1.014583945
Na 2.516910076 2.636830091 3.87315011 0.3134140074 -0.767753005 1.150231004
P 2.33491993 -2.394380093 5.850530148 0.3477729857 0.4221729934 -1.787919998
P 3.579129934 1.974159956 0.9190000296 -0.4844259918 -0.4674310088 1.075184941
16
Lattice="5.582461833953857 0.0 0.0 0.0 6.000758647918701 0.0 0.0 0.0 10.053715705871582" Properties=species:S:1:pos:R:3:forces:R:3 Config_type="disp-12" Weight=1.0 energy=-55.58514284 virial="7.86979 1.23946 -1.09076 1.23946 4.17215 -0.38102 -1.09076 -0.38102 -0.3102" pbc="T T T"
Na 2.983059883 4.529379845 3.102829933 2.005295992 1.029039979 0.2201129943
Na 4.859330177 1.537850022 8.883299828 1.030977011 -0.2998000085 0.09248100221
Na 4.652780056 2.736910105 6.018149853 0.2457689941 0.9970800281 -0.4484829903
Na 2.655639887 0.3573600054 8.982910156 0.1654530019 -0.3307679892 -0.4055350125
Na 4.885260105 1.422209978 2.718240023 -0.03716199845 -0.08210299909 0.1840299964
Na 2.000200033 2.973109961 7.611969948 -1.209023952 -0.453606993 -0.810469985
Na 2.043279886 1.356349945 4.36702013 0.3676429987 -2.091607094 0.8313819766
Na 1.842599988 0.3176000118 1.399260044 -0.4454100132 0.1795379966 -0.01877100021
P 1.226709962 5.497769833 6.927030087 -1.996868968 0.5557309985 -0.4323010147
P 1.31554997 3.594340086 4.33427 -2.765877962 0.9058640003 0.5608419776
P 4.716989994 0.1002200022 6.021860123 0.85898 -0.9814910293 0.6935110092
P 5.512589931 4.080870152 2.23348999 1.445479989 0.4418349862 1.591436028
P 1.012539983 3.462610006 0.4428400099 0.9810760021 -1.238736033 -0.02646400034
P 3.327689886 3.47074008 0.9000700116 -0.7791500092 -0.4621640146 -2.221987963
P 3.993299961 3.927320004 8.614560127 0.3866919875 1.547234058 1.38261497
P 0.2221300006 5.019869804 9.236040115 -0.2538729906 0.283953011 -1.192397952
8
Lattice="2.460108518600464 -4.261033058166504 0.0 2.460108518600464 4.261033058166504 0.0 0.0 0.0 8.76521110534668" Properties=species:S:1:pos:R:3:forces:R:3 Config_type="disp-39" Weight=1.0 energy=-20.58051697 virial="3.81691 0.02757 -0.33092 0.02757 -1.09027 1.21253 -0.33092 1.21253 9.70333" pbc="T T T"
Na 1.290359974 -2.059600115 6.722330093 -0.08417999744 0.5160250068 0.5451830029
Na 1.21194005 1.368420005 6.191629887 0.1350550056 -0.7778559923 -0.2984260023
Na 3.528640032 1.396260023 1.093179941 0.5837990046 0.1372119933 -0.02719799988
Na 3.355040073 -1.945050001 2.913480043 0.5736590028 0.6071180105 0.01296299975
Na 3.605149984 1.13891995 4.006680012 -0.2940070033 -0.5355089903 -0.2183970064
Na 3.864049911 -1.084830046 8.47371006 0.2442470044 -0.03385899961 0.172179997
P 1.501489997 0.1418199986 8.716959953 -0.5229219794 0.675770998 -3.159405947
P 1.306399941 -0.2275999933 1.989789963 -0.6356499791 -0.5889019966 2.973102093
8
Lattice="2.460108518600464 -4.261033058166504 0.0 2.460108518600464 4.261033058166504 0.0 0.0 0.0 8.76521110534668" Properties=species:S:1:pos:R:3:forces:R:3 Config_type="disp-43" Weight=1.0 energy=-18.24707763 virial="8.08806 0.36628 -2.48751 0.36628 7.84118 -2.89933 -2.48751 -2.89933 5.69597" pbc="T T T"
Na 1.14278996 0.4474700093 0.3854599893 0.2019709945 -0.4351629913 -0.8796229959
Na 3.476130009 1.375130057 3.444439888 0.1333300024 0.6534280181 0.1667020023
Na 3.316869974 -1.339529991 5.136189938 1.723641038 0.7873690128 -1.300603986
Na 1.055119991 0.2519200146 3.144500017 -0.05639800057 -0.4243879914 0.1223609969
Na 0.807280004 0.2015500069 6.031919956 -0.4370580018 0.9615219831 0.4139220119
Na 3.706949949 -1.18166995 1.644649982 -0.1710159928 0.03760400042 -0.7554889917
P 1.826210022 -1.868999958 6.790969849 -0.8800029755 -1.235631943 1.054705977
P 3.621030092 1.084959984 8.247550011 -0.5144659877 -0.3447400033 1.178027034
8
Lattice="2.460108518600464 -4.261033058166504 0.0 2.460108518600464 4.261033058166504 0.0 0.0 0.0 8.76521110534668" Properties=species:S:1:pos:R:3:forces:R:3 Config_type="disp-48" Weight=1.0 energy=-19.29645911 virial="5.22212 -1.16261 2.17835 -1.16261 6.91467 1.53453 2.17835 1.53453 2.22509" pbc="T T T"
Na 3.572969913 -0.5061799884 4.579510212 -0.8739299774 2.373451948 0.392084986
Na 1.087949991 -1.25177002 5.547389984 0.2657130063 -0.3054850101 -0.6845459938
Na 2.889569998 -3.09645009 7.133669853 -0.4524239898 -0.2329390049 -0.4113889933
Na 2.374409914 -2.665509939 2.159110069 -0.1526329964 -0.3058759868 -0.2024379969
Na 3.033750057 -0.225150004 1.120129943 -0.8385909796 0.4203450084 0.1399549991
Na 2.282330036 2.343590021 8.258270264 0.8507429957 0.3879849911 0.6315720081
P 2.630899906 3.035850048 2.624289989 -0.1311320066 -0.9010930061 -0.7620350122
P 1.581619978 1.502779961 4.011229992 1.332254052 -1.436388969 0.8967959881
8
Lattice="2.460108518600464 -4.261033058166504 0.0 2.460108518600464 4.261033058166504 0.0 0.0 0.0 8.76521110534668" Properties=species:S:1:pos:R:3:forces:R:3 Config_type="disp-38" Weight=1.0 energy=-20.83465686 virial="-0.70782 -0.39203 -0.41625 -0.39203 3.51446 -0.55411 -0.41625 -0.55411 3.63238" pbc="T T T"
Na 2.503509998 -3.957700014 0.467689991 0.02151400037 -0.3935599923 -0.3449530005
Na 2.542330027 -1.311200023 5.059790134 -0.1678009927 -0.1621949971 -0.3127239943
Na 2.380789995 -1.385910034 1.738240004 -0.0226009991 0.4234820008 -0.182614997
Na 2.323750019 1.747400045 3.128989935 0.2882399857 -0.4043680131 -0.147567004
Na 2.62026 -1.448779941 7.544139862 -0.1362639964 -1.207535028 0.883983016
Na 0.09467999637 0.084420003 5.044879913 0.1297399998 0.03722900152 0.4447749853
P 2.56366992 1.727620006 8.720490456 -0.1990189999 0.146329999 1.667392969
P 2.868360043 0.8631799817 6.749390125 0.08619099855 1.56061697 -2.00829196
8
Lattice="2.460108518600464 -4.261033058166504 0.0 2.460108518600464 4.261033058166504 0.0 0.0 0.0 8.76521110534668" Properties=species:S:1:pos:R:3:forces:R:3 Config_type="disp-47" Weight=1.0 energy=-16.15847071 virial="5.58556 0.72034 1.50188 0.72034 7.52161 2.07606 1.50188 2.07606 14.39004" pbc="T T T"
Na 2.736660004 -3.190670013 6.94698 0.2852619886 0.9982939959 0.9306589961
Na 2.379839897 -0.986289978 4.007659912 0.02721999958 -0.8781560063 1.422713995
Na 0.1750099957 -0.01747000031 3.35739994 -0.08821900189 0.07686299831 -0.7015119791
Na 2.132380009 1.254840016 4.764269829 0.0744690001 0.6242830157 1.503540039
Na 4.050730228 -0.7355499864 5.964149952 -0.04902999848 -0.264290005 0.8280640244
Na 4.725349903 -0.141990006 0.7485899925 -0.06288199872 -0.4020439982 -0.004989999812
P 2.272949934 -1.603819966 1.791560054 -1.067973018 -0.8419309855 -2.388446093
P 3.022809982 1.406720042 2.558609962 0.8811519742 0.6869800091 -1.590029955
16
Lattice="5.582461833953857 0.0 0.0 0.0 6.000758647918701 0.0 0.0 0.0 10.053715705871582" Properties=species:S:1:pos:R:3:forces:R:3 Config_type="disp-11" Weight=1.0 energy=-58.15785172 virial="2.80192 2.69482 1.81612 2.69482 1.93519 -1.14801 1.81612 -1.14801 10.14799" pbc="T T T"
Na 3.915610075 3.948210001 3.373130083 -0.3878290057 -0.09016600251 -0.3217349946
Na 0.9820700288 5.099309921 0.9688100219 -0.4038969874 -0.09061399847 0.4935359955
Na 0.5464900136 4.314599991 7.804639816 0.433209002 1.073596954 0.005429000128
Na 2.74413991 5.626550198 5.937119961 0.03248599917 1.149809003 -0.6534259915
Na 3.370100021 3.269730091 0.2336400002 0.08213499933 0.7109569907 -0.1092590019
Na 2.183000088 0.9549700022 8.660920143 0.2386289984 0.3181799948 -0.3623090088
Na 5.046679974 1.448109984 5.403709888 -0.6290130019 0.1536930054 1.236112952
Na 0.8548600078 4.029819965 4.53922987 -0.250090003 0.2624279857 -0.9459400177
P 3.527849913 3.747610092 7.384359837 1.587703943 0.5643730164 2.530955076
P 5.16590023 2.090460062 8.208270073 -1.166676998 -0.5589709878 -1.15834403
P 2.227649927 2.721250057 6.213019848 -0.3110190034 -1.895956993 -1.644266009
P 3.424819946 0.4248299897 0.9603099823 0.6651930213 -1.030908942 0.9232329726
P 5.210010052 1.375239968 0.0704099983 0.6594489813 -0.654843986 1.277817011
P 3.274840117 0.9793400168 3.183990002 -0.1537410021 -0.237037003 0.110179998
P 0.810190022 1.204509974 3.358890057 1.059440017 -0.8938819766 -0.05181799829
P 1.254760027 2.165669918 1.572020054 -1.455978036 1.219342947 -1.330165029
16
Lattice="5.582461833953857 0.0 0.0 0.0 6.000758647918701 0.0 0.0 0.0 10.053715705871582" Properties=species:S:1:pos:R:3:forces:R:3 Config_type="disp-21" Weight=1.0 energy=-52.23866061 virial="2.0408 5.64626 -2.07304 5.64626 14.03655 3.51477 -2.07304 3.51477 0.28704" pbc="T T T"
Na 4.834259987 3.259200096 6.30618 0.1234989986 -0.7815920115 -1.034772038
Na 2.150959969 3.368149996 0.3734200001 -0.1929520071 1.297189951 1.231451035
Na 5.515759945 0.8303899765 0.8379999995 -0.8211659789 -0.8990060091 -0.6097810268
Na 1.867589951 4.690969944 6.802840233 1.062330961 -0.5302820206 -0.2128359973
Na 2.369080067 0.825699985 0.3086999953 0.6679279804 -1.476593018 0.3146440089
Na 2.659650087 2.157200098 8.135160446 0.3284550011 -0.4964379966 -1.322638988
Na 4.956110001 3.763930082 0.3326399922 -0.1751960069 0.2838200033 -0.2875509858
Na 5.124279976 5.18434 3.962879896 -1.697312951 -2.115387917 -0.7158740163
P 5.487309933 2.600500107 2.640439987 0.6160669923 0.09787999839 1.251783967
P 0.3994599879 1.110999942 5.079979897 0.8123390079 1.618862033 1.941285014
P 1.549419999 0.4207600057 3.29618001 1.051450014 -1.238270044 -0.6191549897
P 0.3993200064 0.4461100101 7.549320221 0.7517129779 3.689224005 -0.6455010176
P 3.248539925 1.093829989 5.477839947 0.02666299976 -0.07152699679 -1.182126999
P 4.688690186 5.030960083 7.989329815 -2.120196104 -1.279047012 2.024205923
P 3.466219902 1.731649995 2.818170071 -0.3666029871 1.276865959 0.5373780131
P 2.482270002 4.15004015 4.263480186 -0.06701900065 0.6243000031 -0.6705120206
8
Lattice="2.460108518600464 -4.261033058166504 0.0 2.460108518600464 4.261033058166504 0.0 0.0 0.0 8.76521110534668" Properties=species:S:1:pos:R:3:forces:R:3 Config_type="disp-44" Weight=1.0 energy=-20.38110451 virial="3.51471 -0.57533 0.54614 -0.57533 4.52442 -1.05413 0.54614 -1.05413 6.58564" pbc="T T T"
Na 4.684780121 0.0912199989 4.380770206 0.1708080024 0.2066989988 0.01835200004
Na 1.28579998 1.408969998 1.656730056 -0.1330489963 -0.106170997 -0.3465940058
Na 2.732719898 -2.371670008 7.492549896 0.02032800019 0.05775500089 0.5311899781
Na 0.695290029 -0.9425100088 6.74105978 -1.389343977 -0.1797060072 1.178838015
Na 2.122499943 -1.368209958 4.538569927 1.165609002 0.1571480036 -0.6080870032
Na 3.548510075 -0.06204999983 1.757799983 0.03550799936 0.1120849997 -0.4318450093
P 2.427360058 1.57051003 4.070310116 -0.9181110263 0.03361500055 -0.7523549795
P 2.416399956 0.8374900222 6.207910061 1.048251987 -0.2814249992 0.41049999
8
Lattice="2.460108518600464 -4.261033058166504 0.0 2.460108518600464 4.261033058166504 0.0 0.0 0.0 8.76521110534668" Properties=species:S:1:pos:R:3:forces:R:3 Config_type="disp-46" Weight=1.0 energy=-19.80784744 virial="1.58613 -1.14301 2.37127 -1.14301 1.69703 -0.61014 2.37127 -0.61014 -1.01937" pbc="T T T"
Na 1.976340055 -2.455189943 1.519299984 -0.8795499802 -0.04328000173 -0.29064399
Na 1.962239981 1.914620042 5.862120152 0.6593109965 0.3514859974 -0.2758820057
Na 1.611590028 0.7301899791 2.085259914 -0.1213660017 0.1737270057 -0.7610949874
Na 3.147890091 -0.726970017 3.071609974 1.000738978 -0.2273100019 1.225685
Na 1.392359972 -1.640959978 7.815649986 -0.3463050127 -0.2831690013 1.087939024
Na 2.475729942 -0.7300199866 6.016960144 0.8399549723 0.3326080143 -0.6427810192
P 0.3860799968 0.2234299928 4.666399956 -0.6801049709 0.06501100212 -0.2318100035
P 4.031300068 -0.6979699731 0.4220800102 -0.4726780057 -0.3690719903 -0.1114120036
16
Lattice="5.582461833953857 0.0 0.0 0.0 6.000758647918701 0.0 0.0 0.0 10.053715705871582" Properties=species:S:1:pos:R:3:forces:R:3 Config_type="disp-13" Weight=1.0 energy=-55.27360891 virial="4.11727 1.37815 2.82284 1.37815 -1.72009 -2.34165 2.82284 -2.34165 1.94106" pbc="T T T"
Na 4.963769913 4.235839844 4.314310074 1.715592027 0.3610650003 1.844596028
Na 2.29895997 3.522469997 9.81208992 0.9202529788 -0.121890001 0.613887012
Na 0.04755000025 5.692989826 0.8636400104 0.7247689962 0.3022550046 -0.5710229874
Na 0.4154599905 2.906019926 8.307009697 -0.0244570002 -1.76198101 -0.4776949883
Na 0.7559499741 0.9185600281 5.714169979 0.4207099974 -0.1526280046 -0.6016380191
Na 4.792699814 3.54934001 1.713279963 -0.4064159989 -0.6294950247 -0.7158839703
Na 1.988350034 0.0162499994 8.323869705 -0.2926580012 -0.1974709928 -0.7158859968
Na 4.45675993 0.8951200247 3.036920071 -0.8814659715 0.100717999 0.6558790207
P 1.567720056 5.227250099 3.006949902 0.6622200012 -0.314884007 1.01027596
P 4.181000233 1.013769984 9.380669594 0.4137029946 0.2419890016 -0.9193469882
P 2.917459965 2.507040024 6.489799976 0.7055870295 -0.5246970057 -0.1971929967
P 1.235280037 2.0927701 2.710720062 1.280097961 0.9444509745 0.5472559929
P 2.704639912 0.5311300159 0.8022300005 0.6309900284 -0.3361859918 0.1511040032
P 2.870759964 3.419270039 3.698790073 -3.785933018 -1.008694053 -0.9407680035
P 4.823440075 4.911600113 7.929440022 -1.368635058 2.950018883 0.3791829944
P 3.723390102 0.5409200191 6.05727005 -0.7143570185 0.1474300027 -0.06274700165
16
Lattice="5.582461833953857 0.0 0.0 0.0 6.000758647918701 0.0 0.0 0.0 10.053715705871582" Properties=species:S:1:pos:R:3:forces:R:3 Config_type="disp-18" Weight=1.0 energy=-53.57412318 virial="3.61518 6.74996 -0.72938 6.74996 7.45673 4.79028 -0.72938 4.79028 3.20465" pbc="T T T"
Na 3.566720009 2.728029966 2.490259886 -0.7705289721 0.004077000078 0.3631690145
Na 4.330589771 1.377900004 8.179269791 0.9560869932 0.6144070029 -0.5491859913
Na 0.4266499877 2.602080107 1.882799983 1.065806031 -0.8830680251 0.1206210032
Na 0.524879992 4.755050182 2.795039892 -0.5708039999 1.707752943 0.2972489893
Na 4.855100155 4.278999805 9.478429794 0.4049600065 -0.3548510075 0.1180770025
Na 2.428390026 4.545110226 7.930399895 -0.740482986 -0.6525700092 0.740447998
Na 2.777960062 0.1344099939 1.218299985 -0.4779810011 -0.2605589926 0.2918530107
Na 2.104300022 1.216310024 8.474430084 -1.682705998 0.368452996 0.6612169743
P 2.595160007 1.794059992 5.87567997 0.2320040017 0.363233 -1.37629199
P 5.044769764 4.512179852 6.746610165 0.1151269972 0.4325540066 -0.7139319777
P 2.027669907 0.7417200208 3.945669889 0.2268889993 -0.3086900115 1.288599014
P 2.694789886 4.849589825 5.504340172 1.729498982 2.730663061 -1.152439952
P 0.3698000014 0.5447400212 6.369019985 -0.2434249967 -0.8824980259 -0.5757099986
P 1.305920005 3.47378993 4.957079887 -0.550015986 -1.940204024 0.2474489957
P 5.190629959 0.6958500147 0.4469999969 0.6533889771 -0.189952001 0.06260400265
P 4.977419853 1.599040031 4.618330002 -0.3478170037 -0.7487469912 0.176275
8
Lattice="2.460108518600464 -4.261033058166504 0.0 2.460108518600464 4.261033058166504 0.0 0.0 0.0 8.76521110534668" Properties=species:S:1:pos:R:3:forces:R:3 Config_type="disp-50" Weight=1.0 energy=-17.17621796 virial="5.74332 0.53911 -4.94907 0.53911 14.10301 -5.98312 -4.94907 -5.98312 10.86296" pbc="T T T"
Na 4.355070114 -0.8712000251 1.173460007 0.3152959943 0.2611809969 0.9597030282
Na 2.813369989 2.903179884 4.249209881 0.8506760001 -0.489293009 -0.03784300014
Na 3.212670088 -2.283970118 5.631539822 0.1558520049 -0.1112449989 -0.8366690278
Na 2.590440035 -3.887399912 7.73431015 -0.8521289825 -0.109503001 -0.5621669888
Na 2.260339975 0.9974700212 0.6662999988 0.3246429861 -0.157483995 0.8341739774
Na 2.022880077 -1.282299995 7.833749771 0.09600999951 -0.2774919868 0.2488500029
P 4.203000069 0.726189971 3.42159009 -2.86083889 -3.471501112 5.475310802
P 2.34236002 -2.404659986 2.074959993 1.970489025 4.355337143 -6.08135891
8
Lattice="2.460108518600464 -4.261033058166504 0.0 2.460108518600464 4.261033058166504 0.0 0.0 0.0 8.76521110534668" Properties=species:S:1:pos:R:3:forces:R:3 Config_type="disp-52" Weight=1.0 energy=-19.16830889 virial="3.11169 0.10345 -0.90336 0.10345 5.3229 0.7383 -0.90336 0.7383 9.65103" pbc="T T T"
Na 4.214159966 0.2643600106 2.495280027 0.3290149868 -1.021137953 -1.148339033
Na 3.559299946 -0.9691500068 4.315579891 -0.7801989913 0.8979920149 1.113983035
Na 1.072929978 -1.750270009 4.271520138 0.9391850233 -0.1166770011 0.5439940095
Na 3.928050041 -1.670330048 6.964369774 -0.1572619975 0.8889579773 1.491096973
Na 3.758529902 1.354339957 6.959290028 0.1057860032 -0.3751629889 0.5194140077
Na 1.625390053 -1.96547997 1.440529943 0.06758199632 1.223585963 -1.194762945
P 1.070449948 0.6202099919 5.401010036 -0.2965689898 -0.5629330277 0.2948499918
P 1.710000038 1.095810056 3.252170086 -0.2075379938 -0.9346250296 -1.620234966
8
Lattice="2.460108518600464 -4.261033058166504 0.0 2.460108518600464 4.261033058166504 0.0 0.0 0.0 8.76521110534668" Properties=species:S:1:pos:R:3:forces:R:3 Config_type="disp-42" Weight=1.0 energy=-17.99218219 virial="4.9589 -2.90116 -2.91462 -2.90116 11.25994 -1.74579 -2.91462 -1.74579 2.01616" pbc="T T T"
Na 1.330189943 1.80824995 5.302929878 0.9714980125 -0.4115479887 -0.7956169844
Na 4.105050087 0.05866000056 4.68543005 -0.1479479969 0.8007389903 -0.7032080293
Na 1.352370024 -1.018959999 3.336189985 0.4513599873 -0.4668680131 -0.9651709795
Na 4.22454977 -0.6259599924 0.8134999871 -0.6840609908 1.132840991 0.5353059769
Na 2.640399933 -3.083630085 7.632329941 0.1507119983 -0.4428290129 0.7203419805
Na 2.28847003 -0.6419799924 6.646210194 -0.6893979907 0.4769310057 1.001664996
P 1.216339946 1.253419995 1.538920045 0.4740310013 -0.2868500054 1.004374027
P 2.980609894 1.611809969 0.3164199889 -0.5261939764 -0.8024169803 -0.7976920009
8
Lattice="2.460108518600464 -4.261033058166504 0.0 2.460108518600464 4.261033058166504 0.0 0.0 0.0 8.76521110534668" Properties=species:S:1:pos:R:3:forces:R:3 Config_type="disp-54" Weight=1.0 energy=-17.82389593 virial="9.74971 0.63007 -0.04391 0.63007 10.92507 2.14081 -0.04391 2.14081 1.08853" pbc="T T T"
Na 0.5199999809 -0.3317900002 6.563399792 -0.1414050013 0.2800480127 -1.579414964
Na 0.5006200075 0.1327999979 3.200969934 0.949416995 1.496727943 0.5074620247
Na 2.119729996 1.288419962 8.359379768 0.7485589981 -0.3232989907 -0.05470800027
Na 2.148750067 -2.064409971 8.630189896 0.2989639938 0.8248090148 0.6531659961
Na 2.547899961 3.926009893 0.3131099939 -0.8187990189 -0.1340440065 1.592890024
Na 2.47213006 -1.970479965 4.422890186 -0.3716109991 0.9614359736 0.07012999803
P 1.998489976 2.408970118 2.456520081 -0.6913290024 -2.181721926 -1.10482204
P 2.443739891 2.090250015 4.712679863 0.02620499954 -0.9239569902 -0.08470200002
16
Lattice="5.582461833953857 0.0 0.0 0.0 6.000758647918701 0.0 0.0 0.0 10.053715705871582" Properties=species:S:1:pos:R:3:forces:R:3 Config_type="disp-9" Weight=1.0 energy=-59.19629114 virial="2.34323 0.82118 -0.22288 0.82118 0.52401 1.29674 -0.22288 1.29674 0.22494" pbc="T T T"
Na 3.775019884 0.3485899866 3.13112998 0.6517270207 -0.01648299955 -0.3388180137
Na 3.708920002 1.810289979 8.578510284 0.425507009 -0.1446080059 -0.206377998
Na 4.635920048 2.156150103 5.344789982 -0.04009699821 -0.05567200109 0.250135988
Na 1.215610027 0.5681999922 8.500519753 -0.7586420178 -0.6854569912 0.3249549866
Na 2.385509968 5.745319843 5.775680065 -0.6151810288 -0.0685319975 0.4035220146
Na 3.368920088 4.850900173 0.2581700087 -0.6052179933 0.7279059887 1.171604991
Na 1.133080006 3.854569912 4.019299984 0.188172996 -0.4966549873 -0.1096699983
Na 0.4788700044 2.854000092 1.080389977 0.5705450177 -0.713488996 -0.2795099914
P 4.879509926 4.91286993 6.031549931 -0.310995996 0.2451280057 1.292979002
P 4.594749928 4.355840206 8.328630447 2.346040964 0.778290987 -3.136303902
P 3.34574008 2.373379946 1.198549986 -0.2036190033 -0.3292840123 0.6681320071
P 4.099219799 3.608170033 2.718980074 0.1508930027 -0.6722800136 -0.4532020092
P 1.021340013 5.457890034 1.612540007 -0.9985690117 1.00178194 0.5985869765
P 1.64823997 2.536230087 6.610070229 0.6124190092 -0.358355999 -0.8287850022
P 1.19690001 3.429990053 8.397809982 -0.9182239771 0.4099189937 1.01788795
P 1.140100002 0.5954599977 3.375750065 -0.4947569966 0.3777880073 -0.3751370013
16
Lattice="5.582461833953857 0.0 0.0 0.0 6.000758647918701 0.0 0.0 0.0 10.053715705871582" Properties=species:S:1:pos:R:3:forces:R:3 Config_type="disp-16" Weight=1.0 energy=-55.29014176 virial="3.67802 1.60394 -1.33594 1.60394 5.67272 0.99439 -1.33594 0.99439 -2.81798" pbc="T T T"
Na 4.16091013 5.147749901 8.115200043 0.05065200105 -0.2110300064 0.3711949885
Na 3.403450012 2.487580061 8.042200089 -0.05021800101 -0.8046200275 -0.09793899953
Na 2.147900105 1.665380001 5.016570091 -0.3309949934 -0.3587599993 -0.5863339901
Na 0.3260599971 0.9032199979 7.985420227 0.6626390219 1.125974059 -0.05891200155
Na 2.141799927 4.298960209 5.985960007 0.2811860144 0.00349500007 1.053740025
Na 2.686739922 2.808739901 0.7242699862 -0.3163729906 -0.3483839929 1.105191946
Na 4.695079803 5.507780075 4.737750053 -0.3470959961 0.5679600239 -0.1391469985
Na 1.586030006 4.79324007 9.175089836 -0.4147199988 -0.05531999841 0.4298329949
P 5.372159958 1.450399995 2.018850088 0.003066000063 -0.8990290165 -0.5850930214
P 0.1609099954 3.85394001 2.429670095 -0.4124230146 1.013391018 0.6790770292
P 4.421390057 2.824749947 3.87883997 -0.09367299825 -0.759338975 0.5997400284
P 5.335760117 2.876669884 0.1611499935 -0.02972500026 -1.093026996 -0.2105650008
P 5.328360081 2.949440002 6.050340176 -0.4963470101 -0.04796399921 -1.001953006
P 1.493029952 4.923510075 3.769220114 0.1154119968 1.233250022 -2.370340109
P 4.027060032 5.43930006 1.611850023 0.97557199 0.9583140016 -0.8297259808
P 1.886970043 0.09944000095 1.485270023 0.4030430019 -0.3249109983 1.641230941
8
Lattice="2.460108518600464 -4.261033058166504 0.0 2.460108518600464 4.261033058166504 0.0 0.0 0.0 8.76521110534668" Properties=species:S:1:pos:R:3:forces:R:3 Config_type="disp-41" Weight=1.0 energy=-18.73526799 virial="5.68351 -1.09571 0.22444 -1.09571 9.57647 -1.44147 0.22444 -1.44147 2.27422" pbc="T T T"
Na 2.971669912 1.707640052 7.609630108 -1.285861969 -0.09058299661 0.1652310044
Na 2.191550016 -1.359590054 3.478140116 -0.1330650002 -0.3297660053 0.04938000068
Na 4.520430088 -0.4955500066 1.964669943 0.2885879874 0.6228680015 -0.2515549958
Na 0.3869400024 0.2941899896 5.519219875 -0.1775469929 -0.1602759957 -0.05350900069
Na 2.151629925 1.358940005 2.463069916 -0.04641100019 -0.6669819951 -0.4599319994
Na 2.746089935 -1.320960045 6.517499924 0.4736000001 0.416565001 -0.1318760067
P 2.691590071 -3.342700005 8.671380043 1.366094947 -0.9551759958 -0.8113350272
P 2.456619978 -1.320150018 0.3313499987 -0.4853979945 1.163351059 1.493595958
8
Lattice="2.460108518600464 -4.261033058166504 0.0 2.460108518600464 4.261033058166504 0.0 0.0 0.0 8.76521110534668" Properties=species:S:1:pos:R:3:forces:R:3 Config_type="disp-49" Weight=1.0 energy=-17.41457695 virial="4.44992 1.29503 1.7827 1.29503 10.40719 2.16794 1.7827 2.16794 3.12923" pbc="T T T"
Na 2.524970055 1.626600027 8.506329536 -0.4910350144 -0.2244810015 -1.940247059
Na 3.300149918 -0.9713699818 2.320290089 1.567165971 0.009306999855 0.09821200371
Na 1.677080035 -2.390110016 1.704439998 -0.1506489962 -1.535403013 0.9646160007
Na 0.9880200028 -0.3066799939 0.5136500001 -0.4738779962 0.984152019 -0.888068974
Na 2.027090073 0.2869899869 3.973469973 -0.5040850043 0.7560930252 0.9800180197
Na 2.243010044 3.36274004 4.857409954 -0.2851220071 -1.993108988 0.07009299845
P 2.421149969 -3.618010044 6.786839962 0.2960419953 0.4729759991 2.422152996
P 1.959489942 -2.67027998 4.98679018 0.04156100005 1.530465007 -1.70677495
8
Lattice="2.460108518600464 -4.261033058166504 0.0 2.460108518600464 4.261033058166504 0.0 0.0 0.0 8.76521110534668" Properties=species:S:1:pos:R:3:forces:R:3 Config_type="disp-40" Weight=1.0 energy=-19.99327337 virial="6.72288 -2.4425 2.37857 -2.4425 3.60084 -0.51706 2.37857 -0.51706 7.75361" pbc="T T T"
Na 2.497319937 -2.099380016 6.672599792 0.02683800086 -0.006544000003 0.7751430273
Na 1.348829985 1.908470035 4.099720001 -0.3406279981 -0.447506994 -0.2058780044
Na 2.539340019 3.21194005 6.192369938 0.6894389987 0.1820649952 0.5224999785
Na 2.569809914 1.627490044 1.655740023 -0.2947939932 0.4183000028 -0.7069690228
Na 2.358200073 0.7243099809 7.556169987 0.2626450062 -0.5290539861 0.5828300118
Na 1.706609964 -0.9038800001 3.624000072 0.09878399968 -0.3218779862 -0.3837090135
P 4.28429985 0.05465000123 2.885360003 0.2265940011 0.2084150016 -0.4879469872
P 3.578190088 0.6246399879 4.993130207 -0.6688780189 0.4962030053 -0.09596999735
16
Lattice="5.582461833953857 0.0 0.0 0.0 6.000758647918701 0.0 0.0 0.0 10.053715705871582" Properties=species:S:1:pos:R:3:forces:R:3 Config_type="disp-14" Weight=1.0 energy=-55.03575948 virial="9.58551 -2.43855 0.5576 -2.43855 6.62493 0.00807 0.5576 0.00807 5.09285" pbc="T T T"
Na 0.5541200042 0.03313000128 9.581040382 0.6399239898 -0.2231619954 0.4200980067
Na 2.570470095 0.001909999992 6.206799984 2.201304913 1.081637025 0.852989018
Na 3.342190027 5.171189785 9.738289833 0.04917100072 -0.2903310061 -0.2191620022
Na 0.8099499941 1.679049969 5.597330093 -0.0997140035 0.3333820105 -0.3666380048
Na 4.869430065 0.3857299984 2.834300041 0.02134899981 0.4346820116 -0.2903479934
Na 4.650629997 1.282610059 8.032549858 0.2308319956 -0.08906300366 -0.6047629714
Na 2.116909981 0.2610599995 3.030210018 -0.05622199923 -0.4514220059 -0.2958090007
Na 3.947459936 3.182290077 6.396560192 -0.5588589907 0.9666590095 -0.363350004
P 0.1114000008 2.969789982 9.997799873 0.09712900221 0.5192210078 0.5269389749
P 1.029539943 4.414649963 5.651490211 -1.900517941 -1.317836046 -0.8784419894
P 2.888890028 3.514689922 1.647920012 -0.1240329966 0.1633580029 1.321084976
P 3.406869888 2.059479952 0.1260100007 -0.09881100059 -1.28816402 1.199983001
P 0.3964700103 4.413239956 1.799200058 0.9802320004 -1.161095023 -1.131845951
P 3.595839977 2.435689926 3.403019905 -0.3218559921 0.9882270098 0.8974279761
P 2.029740095 2.50067997 8.628890038 -0.557987988 0.5137779713 -1.397961974
P 5.355150223 3.990659952 3.862030029 -0.5019389987 -0.1798689961 0.3298000097
16