12
Lattice="5.131001949310303 0.0 -0.0 -2.631838321685791 4.299045562744141 -0.0 0.08340578526258469 0.304759681224823 5.891201019287109" Properties=species:S:1:pos:R:3:forces:R:3 Config_type="10-Na4C2O6" Weight=1.0 energy=-67.79293485 virial="5.48758 3.96547 -0.62192 3.96547 16.89526 -1.43366 -0.62192 -1.43366 6.03969" pbc="T T T"
Na -0.02913000062 3.089449883 1.492509961 0.03459100053 -0.4269909859 0.02112199925
Na 2.711050034 1.617230058 4.350759983 -0.2709949911 0.06151000038 -0.06793499738
Na 0.08397000283 0.2258599997 2.954060078 -0.2733150125 -0.6351569891 0.1032119989
Na 2.456069946 4.225570202 0.09927999973 0.1046010032 0.47676301 -1.490929961
C 2.555840015 1.412089944 1.361909986 1.588004947 5.570042133 2.022325039
C -0.08194000274 3.004040003 4.480340004 3.051640034 6.641281128 -0.9064890146
O 2.525670052 2.810689926 1.47487998 1.314530015 -5.434979916 0.8103809953
O 0.02304000035 1.790629983 4.421150208 -1.319154978 -1.202312946 -0.05068299919
O -1.171470046 3.776580095 4.508339882 2.833132982 -2.919068098 0.5097879767
O 1.380380034 0.9443500042 1.409209967 2.173383951 -1.241328955 -0.8329719901
O 3.774310112 0.8504199982 1.417090058 -5.127562046 1.280205011 -0.4000830054
O 1.138520002 3.718770027 4.396759987 -4.108858109 -2.169964075 0.2822650075
24
Lattice="0.0 8.784577369689941 0.0 5.2747063636779785 0.0 0.0 0.0 -1.3567383289337158 -5.766286373138428" Properties=species:S:1:pos:R:3:forces:R:3 Config_type="109-C4Na8O12" Weight=1.0 energy=-140.75206922 virial="28.73113 -0.69251 -2.06501 -0.69251 10.77526 -0.18331 -2.06501 -0.18331 9.92975" pbc="T T T"
C 4.715690136 5.5145998 -0.8548499942 1.743160963 3.868201971 -0.7642560005
C 5.157579899 2.128930092 -3.961950064 2.82804203 -3.788070917 -0.5665320158
C 2.152920008 1.317880034 -0.7183600068 -0.02772100084 -5.529727936 -5.384888172
C 2.323240042 6.535689831 -4.356609821 -5.104421139 -4.849236965 0.1996490061
Na 4.980279922 8.624529839 -0.04064999893 0.7273439765 1.833454013 0.2531479895
Na 4.745830059 7.931340218 -2.724740028 0.8759310246 -0.01567400061 -0.08117900044
Na 2.686300039 2.842030048 -5.725490093 -0.6006919742 0.1518139988 0.9227020144
Na 5.16779995 2.433340073 -1.28294003 -0.02859500051 -0.06955400109 0.3819890022
Na 2.332910061 4.033209801 -2.777260065 0.2030310035 -0.210988 -0.4805290103
Na 5.215370178 5.024839878 -3.671910048 -0.3716239929 0.1827480048 -0.480358988
Na 3.017950058 0.7243700027 -3.426130056 -1.834213972 0.3345940113 -0.4910660088
Na 2.063630104 6.98319006 -1.429329991 -0.3755050004 0.368761003 1.172111988
O 3.631190062 5.514949799 -1.530840039 -2.098332882 -1.925266981 -2.024111986
O 4.921679974 6.661540031 -0.2731699944 0.3594299853 -2.918857098 -1.074401975
O 4.264939785 3.009840012 -3.944250107 -1.786731958 2.775460958 0.666459024
O 1.027089953 2.153630018 -3.284980059 -1.352035046 1.693488955 -0.8597009778
O 0.3478299975 4.628640175 -1.076069951 0.7794659734 -0.8761050105 0.4456279874
O 4.898509979 1.043670058 -4.655179977 -0.9066429734 0.006202000193 1.00801897
O 3.31201005 1.159129977 -1.204180002 4.04465723 1.37390995 -0.04594900087
O 1.803560019 0.7650799751 -5.664680004 -0.6683880091 2.105288029 1.806571007
O 1.817379951 5.377220154 -4.954850197 -0.4954810143 1.449448943 2.673542023
O 3.48939991 6.588079929 -4.600319862 5.489480972 3.735403061 1.336411953
O 1.383440018 0.382340014 -1.476220012 -1.537142038 0.891727984 2.692222118
O 1.620079994 7.249169827 -3.499989986 0.1369819939 -0.5870230198 -1.30547905
12
Lattice="5.034739017486572 0.0 -0.0 -2.6248838901519775 4.571547508239746 0.0 0.19450902938842773 -0.09257252514362335 5.957949161529541" Properties=species:S:1:pos:R:3:forces:R:3 Config_type="35-Na4C2O6" Weight=1.0 energy=-68.51135915 virial="12.00076 2.44741 -1.51197 2.44741 1.47867 0.05172 -1.51197 0.05172 4.35109" pbc="T T T"
Na 0.004399999976 2.943289995 1.604140043 0.03922399879 -0.09520699829 0.006147000007
Na 2.601150036 1.499650002 4.586190224 0.04087899998 0.1216519997 -0.1043149978
Na 0.2101300061 0.01166000031 2.917069912 -0.7164729834 -0.357520014 0.1416539997
Na 2.500940084 4.459420204 5.897339821 0.5840209723 -0.06014199927 0.3148880005
C 2.56656003 1.438310027 1.422749996 -5.616646767 6.865043163 1.31043601
C 0.06016999856 3.066329956 4.459189892 -0.6333069801 -2.697757959 -0.9423009753
O 2.511739969 2.865969896 1.506800056 0.8471959829 -3.602191925 -0.3759010136
O 0.2247399986 1.585000038 4.455880165 -1.19373405 6.354839802 0.5409010053
O -1.15079999 3.668910027 4.415380001 4.729137897 -3.268735886 0.3951520026
O 1.37887001 0.9340699911 1.505789995 2.085330963 -0.3346570134 -0.6950799823
O 3.633960009 0.901030004 1.351740003 2.734121084 -2.392539024 -0.6082969904
O 1.160670042 3.715409994 4.371399879 -2.899749041 -0.5327849984 0.01671699993
24
Lattice="0.0 8.784577369689941 0.0 5.2747063636779785 0.0 0.0 0.0 -1.3567383289337158 -5.766286373138428" Properties=species:S:1:pos:R:3:forces:R:3 Config_type="115-C4Na8O12" Weight=1.0 energy=-128.21843743 virial="20.13357 10.88564 -4.98154 10.88564 30.98903 4.78525 -4.98154 4.78525 39.33166" pbc="T T T"
C 1.90734005 6.564970016 -0.9531099796 0.4050740004 -4.355597019 -9.092280388
C 0.7579100132 0.5141599774 -3.918080091 -2.849419117 4.306865215 -0.6788049936
C 3.016989946 2.290960073 -0.3215099871 4.656359196 -0.7566429973 2.859817982
C 4.985249996 4.091050148 -4.286799908 1.421605945 5.275052071 5.639784813
Na 0.7446200252 6.549849987 -3.864490032 -0.1157829985 -1.246317029 0.8996670246
Na 5.099170208 7.799670219 -1.248280048 -0.5137079954 -0.7999939919 -0.7927269936
Na 0.9058300257 3.508029938 -1.025470018 0.5229859948 -0.2899349928 -0.84206599
Na 3.859009981 2.733170033 -3.11048007 -0.9425330162 -1.494465947 -0.1970259994
Na 3.133460045 0.34375 -2.130470037 -0.03324599937 1.705191016 -1.417770982
Na 4.099860191 4.935739994 -1.215029955 -1.00217998 -0.3740620017 -0.3969149888
Na 3.059129953 6.676790237 -4.318039894 0.1125800014 0.5885009766 -0.01030100044
Na 0.6549900174 0.9090200067 -0.4318700135 -0.07195600122 0.8633340001 -0.7026630044
O 2.543560028 7.254310131 -1.844120026 1.861837983 -0.421243012 1.223009944
O 1.348230004 5.489109993 -1.460870028 -1.426453948 -0.02303599939 -2.285128117
O 0.5368599892 1.232660055 -4.975279808 0.3944999874 -3.374557018 1.65784502
O 5.121140003 0.9061499834 -2.997730017 1.12548697 -2.850018978 1.716148019
O 1.752990007 5.309740067 -5.577559948 -0.3314310014 4.412748814 10.33474922
O 1.676090002 -0.3357000053 -3.706840038 -0.7223870158 -0.1359989941 0.1213369966
O 2.830300093 0.9975500107 -0.1621599942 -2.342904091 -1.460834026 0.6031380296
O 2.700819969 1.862390041 -5.268330097 0.9529520273 -0.2227790058 -2.169794083
O 5.139430046 3.348119974 -5.109320164 -0.5792430043 -3.039572954 -5.532094955
O 4.282249928 4.917520046 -3.641299963 1.093314052 -0.2612009943 -0.4776580036
O 4.123479843 2.358059883 -1.036010027 -0.03254799917 2.646322012 -2.003865957
O 1.801859975 3.158430099 -3.541140079 -1.582901955 1.308238983 1.543598056
24
Lattice="0.0 8.784577369689941 0.0 5.2747063636779785 0.0 0.0 0.0 -1.3567383289337158 -5.766286373138428" Properties=species:S:1:pos:R:3:forces:R:3 Config_type="102-C4Na8O12" Weight=1.0 energy=-144.79971483 virial="4.43851 -3.48042 -1.66483 -3.48042 12.01283 -1.09837 -1.66483 -1.09837 8.56947" pbc="T T T"
C 0.02572000027 5.406839848 -1.315299988 -0.4351939857 0.7158229947 -0.8392440081
C 0.01934999973 1.897230029 -4.413440228 1.807693958 3.691387892 3.615037918
C 2.547879934 1.145190001 -1.465459943 -0.7656210065 2.129848957 0.653026998
C 2.791960001 6.225669861 -4.412519932 -0.02657799982 1.349725008 -0.759213984
Na 5.158249855 0.02816000022 -0.1289899945 0.113165997 -0.6574680209 0.7388629913
Na 0.2706499994 -0.6576399803 -3.098609924 -0.5330529809 -0.6179609895 -0.02421900071
Na 4.930389881 4.612919807 -3.942899942 0.9455410242 0.5533689857 -0.7528300285
Na 5.18392992 2.376810074 -1.444350004 -0.3526090086 0.6497009993 -0.2971839905
Na 2.845119953 4.453199863 -0.163350001 -0.2881659865 -0.03918299824 0.2396010011
Na 2.548180103 3.701390028 -2.955960035 -0.2164050043 0.2126699984 0.1121589988
Na 2.620990038 0.8059999943 -4.178239822 0.9208589792 -1.160663962 -0.2907089889
Na 2.529819965 7.170479774 -1.206680059 0.1934780031 -0.03195200115 -0.7259070277
O 1.278370023 5.297289848 -1.69630003 -1.718104959 -0.4958260059 -0.3261579871
O 4.310669899 4.58536005 -1.846660018 2.931261063 1.263825059 2.268454075
O 4.30328989 2.55388999 -3.864769936 -0.05028500035 0.02720800042 -0.5150200129
O 1.259359956 2.364379883 -4.256060123 -2.337992907 0.3690010011 -1.147356987
O 5.00316 6.410639763 -0.5195599794 -0.2174610049 -1.137439013 -1.370092988
O 5.079669952 0.7655900121 -4.821899891 -0.4026190042 -4.165941238 -2.356105089
O 3.655090094 0.5472300053 -1.753319979 -1.073374987 -1.187518954 -0.1416759938
O 1.323160052 0.7118700147 -1.670459986 2.087469101 -1.098584056 -0.3994840086
O 1.882850051 7.162930012 -4.541999817 -0.6188110113 0.123709999 -0.1700900048
O 3.912640095 6.581039906 -3.874579906 0.2137529999 -0.2937490046 0.6302189827
O 2.627340078 2.363159895 -0.9823099971 -0.0254309997 -0.6212530136 -0.1133560017
O 2.615880013 5.06072998 -4.972469807 -0.1515160054 0.4212700129 1.971287966
12
Lattice="2.6052849292755127 -4.512485980987549 0.0 2.6052849292755127 4.512485980987549 0.0 0.0 0.0 6.072657585144043" Properties=species:S:1:pos:R:3:forces:R:3 Config_type="122-C2Na4O6" Weight=1.0 energy=-70.78390322 virial="14.47605 2.08414 -1.8708 2.08414 16.52215 2.18636 -1.8708 2.18636 3.79281" pbc="T T T"
C 2.512010098 -1.687160015 1.439710021 0.2433930039 -1.424482942 1.773040056
C 2.643450022 1.810690045 4.443729877 4.21572113 -2.749605894 2.967645884
Na 2.535140038 1.484689951 1.201920033 0.02295799926 -0.3297199905 -0.02165599912
Na 2.675580025 -1.341060042 4.993690014 -0.174999997 0.4244869947 -0.5797719955
Na 2.720910072 4.195809841 2.810329914 -0.8548679948 1.125677943 1.948497057
Na 5.179210186 -0.04385000095 0.2539499998 0.03846500069 0.4187659919 -1.454869032
O 2.814120054 -2.901160002 1.714720011 0.7751629949 -0.5261999965 0.1072190031
O 2.198060036 2.930989981 4.708409786 -0.7324309945 4.15539217 -0.04818199947
O 1.86311996 0.8687599897 4.292699814 -2.431762934 -4.039422035 -2.254007101
O 3.429369926 -0.8742300272 1.164309978 1.114138961 2.182670116 -1.420397997
O 1.321830034 -1.287760019 1.546309948 -1.415598035 -0.4759860039 -0.6970000267
O 3.925270081 1.482329965 4.716730118 -0.8001790047 1.23842597 -0.3205159903
24
Lattice="0.0 8.784577369689941 0.0 5.2747063636779785 0.0 0.0 0.0 -1.3567383289337158 -5.766286373138428" Properties=species:S:1:pos:R:3:forces:R:3 Config_type="106-C4Na8O12" Weight=1.0 energy=-143.1101631 virial="3.927 4.47662 -0.61268 4.47662 4.41116 -0.08062 -0.61268 -0.08062 11.65437" pbc="T T T"
C 5.239880085 5.400219917 -1.367449999 2.718394041 5.025866032 1.146471024
C 0.1814199984 1.708950043 -4.280280113 -5.388918877 2.711296082 -0.2626369894
C 2.503360033 1.131569982 -1.483700037 2.285232067 -2.892561913 -0.08946599811
C 2.630520105 6.258309841 -4.207709789 1.033869982 2.353898048 -0.1672929972
Na 4.957039833 0.2975800037 -0.0978000015 -0.232626006 -1.010280967 -0.39952299
Na 0.008670000359 8.10229969 -2.825939894 -0.3227710128 -0.1176400036 -0.02408700064
Na 0.2561199963 5.190639973 -4.482659817 -0.4461280107 -0.3270750046 -0.130238995
Na 5.157989979 2.587660074 -1.992810011 -0.1805389971 0.09690999985 1.026906013
Na 2.540159941 2.890559912 -5.578750134 1.003919959 -0.005822999869 0.158069998
Na 2.587650061 3.775480032 -2.744620085 0.1048199981 -0.266463995 -0.3120340109
Na 2.720170021 0.5115299821 -4.231480122 -0.3095610142 -0.6231899858 0.3076809943
Na 2.726480007 6.880189896 -1.577489972 -0.09770800173 0.2511309981 -0.1268540025
O 1.222919941 4.913109779 -1.263190031 -3.698772907 -0.2446310073 -0.8635870218
O 4.185629845 4.918550014 -1.814479947 -0.1065160036 -2.843357086 -0.4125080109
O 4.200650215 2.152810097 -3.937109947 0.609588027 -1.668434978 -0.9467700124
O 1.00011003 2.628760099 -4.01210022 3.731903076 1.096515059 0.2632220089
O 5.10931015 6.752059937 -1.035979986 0.9128230214 -2.354756117 0.2588529885
O 0.3481500149 0.6317899823 -4.907740116 0.9426490068 0.1958239973 0.7254649997
O 3.486279964 0.4485200047 -2.031359911 -1.139997005 -1.403421998 -0.9860900044
O 1.274209976 0.674759984 -1.681609988 2.165282011 2.775706053 1.35780704
O 1.546489954 7.00496006 -3.856600046 2.617675066 -1.660411954 -1.032973051
O 3.838269949 6.604410172 -3.70472002 -2.930186033 -0.9024839997 -1.615877986
O 3.101989985 2.028379917 -0.7092700005 -3.113279104 1.616248965 0.1761489958
O 2.537590027 5.322840214 -5.118579865 -0.1591559947 0.1971379966 1.949313998
30
Lattice="4.8875532150268555 0.0 -0.0 -2.6017985343933105 4.275687217712402 0.0 -0.7119094133377075 -0.6418498754501343 17.48224449157715" Properties=species:S:1:pos:R:3:forces:R:3 Config_type="98-Na6C6O18" Weight=1.0 energy=-180.73867401 virial="62.83113 -5.52506 2.61892 -5.52506 65.82397 -1.42407 2.61892 -1.42407 -0.65927" pbc="T T T"
Na -0.1574600041 2.667129993 2.937109947 -0.2134149969 0.2622340024 -0.2174769938
Na 1.578760028 3.619689941 17.34375 -0.04300599918 -0.08280500025 0.447773993
Na 1.826769948 3.899840117 8.737580299 0.2638100088 0.253313005 0.203154996
Na 2.171580076 1.274659991 5.816130161 0.008709000424 -0.05316299945 0.01337900013
Na 1.730900049 0.8485299945 14.67111969 -0.01626200043 -0.0113049997 -0.253237009
Na -0.5340499878 2.369679928 11.66956997 -0.008682000451 0.1271229982 -0.05267300084
C 2.277940035 1.31833005 1.574470043 -0.2548460066 2.264708042 -3.457293034
C -2.739379883 4.094009876 4.238999844 0.6281279922 0.9149990082 1.985697985
C -0.4572399855 2.658210039 7.364069939 10.97606754 -7.655947208 -0.9622730017
C 2.003249884 0.9908800125 10.23287964 -8.042422295 17.02941704 -0.6310200095
C 1.742230058 3.733589888 13.17010975 -6.807335854 3.862668991 -1.242774963
C -0.7755600214 2.230370045 15.94305992 -0.3222770095 -2.326904058 1.597252965
O 3.535609961 1.362879992 1.384039998 1.135481954 0.5161399841 0.8365060091
O 1.743460059 0.2017499954 1.49533999 -1.309648037 -0.6855000257 1.400836945
O 2.732800007 3.019320011 4.317800045 1.20698905 -1.230061054 -0.8171300292
O 3.506839991 -0.0272100009 4.35695982 -2.545651913 -0.2609089911 -0.4796929955
O 0.3739300072 0.9966599941 4.352119923 0.929445982 0.2903639972 -0.61629498
O 1.690870047 2.494760036 1.359320045 0.4845570028 -2.046298981 1.260895967
O 0.8773699999 2.628499985 7.168260098 -1.039260983 -0.1669459939 0.6043670177
O -0.956610024 1.573940039 7.392849922 -2.185117006 -7.048499107 1.812317014
O 2.545200109 0.05913000181 10.21844006 10.11858463 -16.80859566 0.09456499666
O 0.7160699964 1.138479948 10.17978954 -0.2735629976 0.951233983 0.1478990018
O 2.61619997 2.223099947 10.18671036 -1.887315035 -1.348822951 0.0760229975
O -1.03057003 3.587059975 7.186369896 -7.970993996 14.6953516 -1.513254046
O -1.981750011 3.704210043 13.06630039 9.736132622 1.063125968 -0.1786549985
O 1.243180037 2.606869936 13.12728977 -3.157639027 -1.954332948 0.8419880271
O -0.2032700032 1.169909954 16.13229942 2.463169098 -3.66463995 -0.1212100014
O -1.984490037 2.27538991 16.00477028 -6.195646763 -0.4918279946 -0.6964489818
O -0.2453600019 3.291310072 15.96267033 4.232870102 6.56471014 -1.044123054
O -1.112810016 0.6728600264 13.07493973 0.08913400024 -2.958830118 0.9608989954
12
Lattice="5.239084243774414 0.0 0.0 -2.420454502105713 4.5914435386657715 -0.0 0.1878039836883545 -0.24845948815345764 5.887725353240967" Properties=species:S:1:pos:R:3:forces:R:3 Config_type="18-Na4C2O6" Weight=1.0 energy=-68.1707279 virial="-1.58304 -1.10539 -0.77014 -1.10539 -9.13522 0.47152 -0.77014 0.47152 4.04236" pbc="T T T"
Na 0.2043800056 3.008709908 1.54974997 -0.1813559979 -0.02556500025 0.02552000061
Na 2.87074995 1.398579955 4.386050224 0.03028599918 -0.0820299983 0.02631199919
Na 2.866159916 4.410049915 2.925940037 0.1648270041 0.665850997 0.176936999
Na 2.9958601 4.271070004 5.850120068 -0.3107329905 0.742200017 0.3216409981
C 2.640110016 1.533560038 1.497099996 3.275604963 -3.000477076 -1.082201004
C 0.315079987 2.935709953 4.479629993 -3.327471018 -3.631719112 -1.846654058
O 2.815720081 2.905329943 1.433580041 -1.91712606 -6.229544163 -0.001220999984
O 0.3037 1.470319986 4.418910027 -0.3187659979 6.083032131 0.8393859863
O -0.9237800241 3.591799974 4.39136982 5.578849792 -2.997034073 0.08914399892
O 1.567899942 0.6842899919 1.410680056 3.040088892 4.761086941 0.2699260116
O 3.849720001 0.7577199936 1.521149993 -4.339327812 3.674997091 0.7274659872
O 1.44828999 3.486920118 4.397329807 -1.694875002 0.03920099884 0.4537450075
12
Lattice="5.417498588562012 0.0 -0.0 -2.812854528427124 4.729391574859619 -0.0 0.08927775919437408 -0.29332077503204346 6.05054235458374" Properties=species:S:1:pos:R:3:forces:R:3 Config_type="24-Na4C2O6" Weight=1.0 energy=-67.5959396 virial="-12.88606 2.32932 -0.28202 2.32932 -16.72414 0.78474 -0.28202 0.78474 0.69806" pbc="T T T"
Na -0.01754000038 3.213310003 1.565619946 0.02332700044 0.02141899988 0.2059680074
Na 2.833280087 1.403020024 4.436180115 0.03645100072 -0.02141899988 -0.2451899946
Na 0.1460500062 -0.05345999822 3.038710117 -0.5098270178 -0.5383189917 -0.06963200122
Na 0.0926399976 0.04789000005 0.0117899999 -0.7597770095 -0.07428699732 -0.1331560016
C 2.624500036 1.493800044 1.392429948 1.927783966 -0.3107390106 4.593794823
C -0.04890000075 2.947089911 4.597549915 1.659111977 0.5474249721 -3.410855055
O 2.699480057 2.90982008 1.595289946 -0.7046269774 -6.405832767 -1.829468966
O 0.03099000081 1.521620035 4.432670116 -1.467355013 6.140975952 1.744722009
O -1.223109961 3.74977994 4.558819771 4.634462833 -3.982331991 0.9767869711
O 1.473359942 0.7322499752 1.524479985 5.170273781 3.94411397 -1.511648059
O 3.937829971 0.7458599806 1.620090008 -5.699300766 3.083328009 -1.516149998
O 1.155089974 3.609970093 4.403069973 -4.310523987 -2.404331923 1.194825053
12
Lattice="5.004298210144043 0.0 -0.0 -2.4062039852142334 4.607841968536377 0.0 -0.27268385887145996 0.0445767305791378 5.77907657623291" Properties=species:S:1:pos:R:3:forces:R:3 Config_type="39-Na4C2O6" Weight=1.0 energy=-68.09128864 virial="22.80419 -3.8352 1.86166 -3.8352 10.6628 -0.48846 1.86166 -0.48846 4.3899" pbc="T T T"
Na -0.08152999729 3.075370073 1.449000001 0.1027140021 0.0890500024 -0.07629299909
Na 2.291079998 1.638870001 4.267099857 -0.1304730028 -0.2027599961 0.294964999
Na 2.336019993 4.610889912 2.939620018 0.3335469961 -0.160307005 0.1744610071
Na 2.279150009 4.526760101 5.776060104 0.1187539995 0.7291949987 -0.05530599877
C 2.391789913 1.518190026 1.555960059 4.05475378 0.6966800094 -3.401711941
C -0.2588399947 3.019920111 4.357940197 6.793869019 8.056061745 0.5359799862
O 2.48010993 2.946199894 1.407989979 -0.8852059841 -6.191566944 1.650887966
O -0.2888000011 1.84999001 4.368609905 -1.121898055 -7.86776495 -0.2330600023
O -1.147289991 3.841449976 4.36055994 -5.22198391 2.364461899 -0.2516750097
O 1.394880056 0.7664099932 1.454949975 -1.812198043 1.843593955 1.239770055
O 3.519439936 0.7925900221 1.426959991 -1.611366987 3.383614063 0.7528309822
O 0.9487400055 3.700279951 4.409309864 -0.6205120087 -2.740257978 -0.6308490038
30
Lattice="2.522618055343628 -4.369302749633789 0.0 2.522618055343628 4.369302749633789 0.0 0.0 0.0 16.84735107421875" Properties=species:S:1:pos:R:3:forces:R:3 Config_type="174-C6Na6O18" Weight=1.0 energy=-183.49098573 virial="7.65015 0.68592 -0.78026 0.68592 6.52532 3.2713 -0.78026 3.2713 20.26439" pbc="T T T"
C 2.922450066 2.75673008 1.407490015 1.899706006 0.7592319846 1.498921037
C 2.492899895 -0.7779300213 4.355750084 1.72358501 -0.633852005 -0.8595730066
C 0.2212499976 0.1002300009 7.08987999 -1.430207968 -3.130074024 -1.602465987
C 3.268170118 -2.028330088 9.990369797 -1.786525965 0.1977040023 -1.404569983
C 3.19569993 2.828789949 12.59230995 -2.64428997 3.792795897 -0.6392869949
C 2.706229925 0.2817299962 15.20040989 -2.95777607 1.162510991 0.9983959794
Na 2.775010109 -3.377909899 2.838759899 -0.07566899806 0.3962100148 1.677636027
Na 2.788609982 -3.141959906 0.0653700009 0.4103040099 0.6777359843 -1.690212011
Na 3.241620064 1.389240026 8.528369904 -1.221068978 -0.580287993 -0.3957859874
Na 2.675810099 1.568680048 5.704820156 0.3096430004 1.310724974 -1.325065017
Na 2.922060013 -2.70739007 13.47171021 0.8383139968 -0.1431809962 0.7333790064
Na 3.15267992 0.6733400226 11.26484966 0.8586620092 -2.080064058 -0.3358919919
O 1.887789965 2.25067997 1.857640028 -1.766796947 -1.177067995 0.8166409731
O 0.4333699942 -0.3504300117 1.289330006 0.169351995 -1.176573992 -1.403429031
O 1.220700026 -0.8086000085 4.485189915 2.231853008 -0.2932569981 0.1905120015
O 3.093679905 0.3033199906 3.815550089 -0.9647430182 -2.51781106 0.3234890103
O 3.38470006 -1.817899942 4.630630016 -3.091845036 3.055219889 -0.2359050065
O 1.488919973 -2.265759945 1.353019953 -0.8613510132 0.3517349958 -0.4762760103
O 4.029510021 0.3524000049 6.752950191 2.773762941 -0.2209759951 0.5159890056
O 1.227190018 0.8243100047 6.915919781 -1.349913955 0.3282960057 1.062180996
O 3.599709988 -0.8340600133 9.556139946 -0.786831975 -2.644013882 0.2300989926
O 1.602419972 1.429119945 10.28610039 -1.90653801 1.439753056 -0.1900479943
O 1.967429996 -2.410729885 9.993189812 4.138800144 1.84759903 1.090335011
O 2.946219921 3.194580078 7.405149937 0.05793799832 2.441782951 0.802226007
O 3.316859961 1.679919958 12.99048042 -0.1917629987 -2.143156052 2.280134916
O 1.980430007 3.300299883 12.31544971 2.603401899 -0.6164019704 -0.1180600002
O 3.939450026 0.4573000073 15.20038033 0.8789179921 -0.5665619969 -0.1940550059
O 2.020960093 -0.789139986 14.92945957 1.553176045 2.004293919 0.3701440096
O 2.020970106 1.422189951 15.60389996 1.104238987 -2.862787962 -0.585085988
O 1.705549955 -0.8077200055 12.52632999 -0.5163339972 1.020473957 -1.134371996
30
Lattice="2.522618055343628 -4.369302749633789 0.0 2.522618055343628 4.369302749633789 0.0 0.0 0.0 16.84735107421875" Properties=species:S:1:pos:R:3:forces:R:3 Config_type="193-C6Na6O18" Weight=1.0 energy=-177.95460691 virial="21.53782 -3.45559 -12.83314 -3.45559 21.40688 3.8528 -12.83314 3.8528 28.7689" pbc="T T T"
C 2.625449896 -4.04997015 5.498529911 4.970849991 -2.624643087 -8.91145134
C 2.859119892 -2.997200012 0.06573999673 10.83032417 -6.515711784 -10.30458927
C 3.052730083 0.3506799936 2.751660109 -0.04512900114 -0.07224299759 0.9191020131
C 2.440210104 1.774780035 7.959159851 3.255745888 -1.416977048 5.571669102
C 1.438339949 -1.907199979 11.82460022 3.364362955 -5.751755238 -5.326406956
C 3.507770061 0.4830200076 14.21341991 -1.197893977 4.667272091 0.3273259997
Na 2.978460073 1.54152 5.082970142 -1.471531987 0.6830729842 2.768577099
Na 1.175740004 -0.5345600247 14.85978985 -0.3890990019 -1.553871036 -0.7978749871
Na 4.883719921 0.1835200042 9.333539963 2.096689939 1.358191013 -0.5934339762
Na 2.736049891 -1.36879003 6.70675993 -0.6395429969 0.08717700094 0.6981499791
Na 2.26770997 -1.973099947 2.93956995 -0.9484829903 -0.2292889953 0.2071129978
Na 4.280920029 -1.068420053 12.52857971 -0.237154007 -0.4241369963 -0.2356050014
O 4.335249901 0.05099000037 6.301239967 -2.759124041 -1.641515017 4.349500179
O 3.31704998 -0.5534800291 10.58823967 -0.5597440004 1.115061045 1.251564026
O 2.526799917 1.345469952 3.102610111 -0.1879570037 0.1038530022 -1.694378972
O 1.152660012 0.9915500283 16.19535065 2.102504015 -0.5879179835 0.2109690011
O 2.783489943 -0.04295999929 9.586359978 -1.172333002 -1.03116405 1.15773499
O 2.333410025 -3.264750004 4.457520008 0.6767129898 1.363391042 0.4135249853
O 3.72062993 -0.6034500003 2.558769941 0.6555160284 0.8516370058 -1.472612977
O 2.161509991 -2.516550064 0.6945899725 -12.7069397 8.036418915 11.24493122
O 1.893450022 0.6839699745 7.53801012 -1.139583945 2.102684975 -1.441676974
O 1.92008996 2.509500027 9.01638031 -0.4886710048 -1.966966987 -5.290347099
O 3.810389996 1.791689992 7.981100082 -2.668345928 1.563928962 -1.098286986
O 1.151389956 -0.4919399917 5.023240089 -0.09019699693 0.4893470109 2.46330905
O 3.352639914 2.55411005 10.74639988 -0.6702229977 1.280136943 2.569154978
O 1.896569967 -1.617580056 12.90931988 -1.064532995 3.809935093 1.489812016
O 2.32585001 0.7877299786 13.72795963 3.734973907 -0.557238996 0.129301995
O 3.851939917 -0.4285399914 15.03347015 -0.7072529793 -2.17948103 0.8752269745
O 2.058039904 -3.041189909 14.15174961 -1.29854095 -1.397896051 1.262403011
O 2.406559944 -3.2427001 11.62817001 -1.245398045 0.438699007 -0.7427049875
12
Lattice="5.457577705383301 0.0 0.0 -2.6277272701263428 4.499332427978516 -0.0 -0.01067142654210329 -0.028014129027724266 6.167290687561035" Properties=species:S:1:pos:R:3:forces:R:3 Config_type="13-Na4C2O6" Weight=1.0 energy=-69.38574335 virial="12.04871 -0.91404 -0.46236 -0.91404 0.45976 -0.66179 -0.46236 -0.66179 -0.03838" pbc="T T T"
Na -0.02611000091 3.086780071 1.55013001 0.05931299925 -0.02368099988 0.06859300286
Na 2.760169983 1.546489954 4.668059826 -0.04924200103 -0.1943169981 -0.112213999
Na 5.377180099 0.03753999993 3.140120029 0.4753719866 -0.332603991 -0.3370429873
Na 2.82291007 4.380750179 0.07395999879 0.3594059944 0.8224340081 -0.6022899747
C 2.855849981 1.48732996 1.451869965 -9.152620316 3.298540115 2.247308969
C 0.1425600052 2.954200029 4.658500195 -7.723679066 -1.44688797 -0.7489510179
O 2.713320017 2.855220079 1.487450004 1.547474027 -3.501461983 -0.4949660003
O -0.02012000047 1.598340034 4.609630108 0.8405650258 3.727510929 0.673246026
O -1.007500052 3.727570057 4.675290108 1.367012978 -2.402371883 0.7019150257
O 1.652519941 0.8350999951 1.626799941 1.80411005 1.248628974 -0.4987919927
O 3.822390079 0.796660006 1.493090034 5.390598774 -1.598327041 -0.6848980188
O 1.127429962 3.642549992 4.559490204 5.081689835 0.4025360048 -0.2119099945
30
Lattice="2.522618055343628 -4.369302749633789 0.0 2.522618055343628 4.369302749633789 0.0 0.0 0.0 16.84735107421875" Properties=species:S:1:pos:R:3:forces:R:3 Config_type="187-C6Na6O18" Weight=1.0 energy=-182.69649155 virial="18.71282 6.58695 3.01665 6.58695 21.54171 8.36671 3.01665 8.36671 18.29461" pbc="T T T"
C 2.535010099 -4.302380085 14.63486958 2.830547094 2.044123888 4.352518082
C 2.744980097 3.642960072 0.8974400163 3.086481094 -0.1241500005 -0.06316000223
C 3.219229937 0.2096299976 6.013339996 -3.061853886 6.410976887 0.500805974
C 2.568459988 3.780230045 4.135099888 -6.575175762 1.415367961 -3.925163984
C 1.716899991 -0.7956200242 8.284059525 0.7256090045 1.695057034 0.7847759724
C 2.604150057 2.253109932 11.31579971 -4.080884933 -0.9362949729 -0.5722190142
Na 2.222160101 0.1385499984 2.818109989 0.03317400068 0.3151359856 -0.9278219938
Na 2.839580059 -1.365849972 13.04911041 -1.600566983 0.08196800202 -0.8374819756
Na 2.616070032 -3.872220039 10.99180984 -0.2694559991 0.4551379979 -0.2962380052
Na 2.511689901 0.9890099764 16.39389038 1.016206026 0.3851360083 0.1751679927
Na 1.546229959 2.148819923 9.145130157 0.7539610267 -0.2564289868 -2.34917593
Na 3.020879984 -1.659540057 16.12605095 -1.247928977 -0.7541769743 -0.4628509879
O 3.958960056 -1.47499001 10.98655033 1.759158969 -1.053562045 0.7514690161
O 4.235189915 0.9524199963 15.08833981 1.275959969 3.20510006 0.4661760032
O 3.219540119 2.402230024 1.074419975 -0.005086999852 2.969558954 0.3374510109
O 1.090829968 0.306400001 0.9437999725 -2.051750898 -1.978204012 0.9745690227
O 4.084959984 -0.5001500249 0.612070024 -1.423689961 -0.209435001 -0.2191690058
O 4.424870014 -0.8127800226 14.09609985 -0.2832190096 -4.854239941 -3.195329905
O 2.577680111 1.233469963 5.932380199 0.8829820156 -3.06111598 -0.6255559921
O 3.21152997 -2.788619995 3.760940075 0.008328000084 0.9427049756 -0.6996750236
O 1.019979954 -0.6103000045 4.71969986 3.676680088 -1.741973042 1.895642996
O 2.433429956 -2.540479898 2.789289951 0.1420239955 0.5037599802 0.2022980005
O 4.106249809 -0.3276900053 3.455339909 3.749694109 -1.852406025 2.567832947
O 4.030489922 -0.5732200146 6.168529987 1.034821033 -2.843688011 0.2397599965
O 0.5575799942 -0.4329200089 7.805389881 2.03442502 -1.049520016 0.6211180091
O 2.540849924 0.2602800131 8.546090126 -2.052498102 -3.152112961 -0.2199600041
O 2.593329906 0.9947599769 11.31830025 -0.2836140096 -0.4352569878 0.4753110111
O 1.07051003 -1.462450027 11.53890991 3.117408037 2.138186932 2.055740118
O 1.284469962 0.01312999986 15.01404953 -2.332755089 -0.2256249934 -1.796092987
O 2.051239967 -2.012089968 8.554510117 -0.8589789867 1.965973973 -0.2107439935
24
Lattice="0.0 8.784577369689941 0.0 5.2747063636779785 0.0 0.0 0.0 -1.3567383289337158 -5.766286373138428" Properties=species:S:1:pos:R:3:forces:R:3 Config_type="108-C4Na8O12" Weight=1.0 energy=-143.66072262 virial="8.7305 -1.38839 -1.58996 -1.38839 4.13968 -4.52525 -1.58996 -4.52525 10.0654" pbc="T T T"
C 5.22799015 5.610760212 -1.256369948 -1.24988699 0.7833619714 -0.2426880002
C 0.1135199964 2.016839981 -4.528619766 -1.495996952 -2.635082006 0.8252729774
C 2.756489992 1.191759944 -1.391710043 -2.132400036 1.450055003 -1.792775989
C 2.638509989 6.016940117 -4.297339916 0.2779310048 2.502017021 -0.2811160088
Na 5.157120228 0.02418000065 -0.08997000009 0.5515409708 0.8751950264 0.7823910117
Na 0.1207299978 8.145279884 -2.646009922 -0.2582480013 0.2006070018 -0.7346199751
Na 0.2510899901 5.089580059 -3.902580023 -0.752448976 -0.1544039994 -0.4549250007
Na 5.042600155 2.793819904 -1.845610023 0.8445379734 -0.1426180005 -0.0004429999972
Na 2.864739895 4.256410122 -0.02229000069 -0.4372510016 1.15765202 1.227700949
Na 2.519629955 3.432159901 -2.44659996 -0.6035439968 0.7653319836 -1.83553803
Na 2.280989885 0.3361099958 -4.60213995 1.001711965 -0.0790290013 0.9255539775
Na 2.669470072 6.989890099 -1.817000031 -0.02813000046 -0.8362290263 0.3257879913
O 4.201079845 5.168389797 -1.950449944 -0.6645609736 -0.364823997 -0.02954499982
O 5.110610008 6.777170181 -0.6956700087 0.8565000296 -0.5975400209 -0.7858039737
O 0.4118900001 1.002320051 -5.34691 0.908559978 1.703014016 0.4645929933
O 4.172729969 1.860900044 -4.030960083 0.1001520008 1.369282007 0.7961400151